V -t * -v 1.0a5 -a 0
A -t * -n 1 -p 0 -o 0x7fffffff -c 30 -a 1
A -t * -h 1 -m 1073741823 -s 0
n -t * -a 0 -s 0 -S UP -v circle -c black -i black
n -t * -a 1 -s 1 -S UP -v circle -c black -i black
n -t * -a 2 -s 2 -S UP -v circle -c black -i black
n -t * -a 3 -s 3 -S UP -v circle -c black -i black
l -t * -s 2 -d 0 -S UP -r 10000000 -D 0.001 -c black
l -t * -s 0 -d 1 -S UP -r 1000000 -D 0.0040000000000000001 -c black
l -t * -s 1 -d 3 -S UP -r 10000000 -D 0.001 -c black
+ -t 0 -s 2 -d 0 -p tcp -e 40 -c 0 -i 0 -a 0 -x {2.0 3.0 0 ------- null}
- -t 0 -s 2 -d 0 -p tcp -e 40 -c 0 -i 0 -a 0 -x {2.0 3.0 0 ------- null}
h -t 0 -s 2 -d 0 -p tcp -e 40 -c 0 -i 0 -a 0 -x {2.0 3.0 -1 ------- null}
r -t 0.001032 -s 2 -d 0 -p tcp -e 40 -c 0 -i 0 -a 0 -x {2.0 3.0 0 ------- null}
+ -t 0.001032 -s 0 -d 1 -p tcp -e 40 -c 0 -i 0 -a 0 -x {2.0 3.0 0 ------- null}
- -t 0.001032 -s 0 -d 1 -p tcp -e 40 -c 0 -i 0 -a 0 -x {2.0 3.0 0 ------- null}
h -t 0.001032 -s 0 -d 1 -p tcp -e 40 -c 0 -i 0 -a 0 -x {2.0 3.0 -1 ------- null}
r -t 0.005352 -s 0 -d 1 -p tcp -e 40 -c 0 -i 0 -a 0 -x {2.0 3.0 0 ------- null}
+ -t 0.005352 -s 1 -d 3 -p tcp -e 40 -c 0 -i 0 -a 0 -x {2.0 3.0 0 ------- null}
- -t 0.005352 -s 1 -d 3 -p tcp -e 40 -c 0 -i 0 -a 0 -x {2.0 3.0 0 ------- null}
h -t 0.005352 -s 1 -d 3 -p tcp -e 40 -c 0 -i 0 -a 0 -x {2.0 3.0 -1 ------- null}
r -t 0.006384 -s 1 -d 3 -p tcp -e 40 -c 0 -i 0 -a 0 -x {2.0 3.0 0 ------- null}
+ -t 0.006384 -s 3 -d 1 -p ack -e 40 -c 0 -i 1 -a 0 -x {3.0 2.0 0 ------- null}
- -t 0.006384 -s 3 -d 1 -p ack -e 40 -c 0 -i 1 -a 0 -x {3.0 2.0 0 ------- null}
h -t 0.006384 -s 3 -d 1 -p ack -e 40 -c 0 -i 1 -a 0 -x {3.0 2.0 -1 ------- null}
r -t 0.007416 -s 3 -d 1 -p ack -e 40 -c 0 -i 1 -a 0 -x {3.0 2.0 0 ------- null}
+ -t 0.007416 -s 1 -d 0 -p ack -e 40 -c 0 -i 1 -a 0 -x {3.0 2.0 0 ------- null}
- -t 0.007416 -s 1 -d 0 -p ack -e 40 -c 0 -i 1 -a 0 -x {3.0 2.0 0 ------- null}
h -t 0.007416 -s 1 -d 0 -p ack -e 40 -c 0 -i 1 -a 0 -x {3.0 2.0 -1 ------- null}
r -t 0.011736 -s 1 -d 0 -p ack -e 40 -c 0 -i 1 -a 0 -x {3.0 2.0 0 ------- null}
+ -t 0.011736 -s 0 -d 2 -p ack -e 40 -c 0 -i 1 -a 0 -x {3.0 2.0 0 ------- null}
- -t 0.011736 -s 0 -d 2 -p ack -e 40 -c 0 -i 1 -a 0 -x {3.0 2.0 0 ------- null}
h -t 0.011736 -s 0 -d 2 -p ack -e 40 -c 0 -i 1 -a 0 -x {3.0 2.0 -1 ------- null}
r -t 0.012768 -s 0 -d 2 -p ack -e 40 -c 0 -i 1 -a 0 -x {3.0 2.0 0 ------- null}
+ -t 0.012768 -s 2 -d 0 -p tcp -e 1040 -c 0 -i 2 -a 0 -x {2.0 3.0 1 ------- null}
- -t 0.012768 -s 2 -d 0 -p tcp -e 1040 -c 0 -i 2 -a 0 -x {2.0 3.0 1 ------- null}
h -t 0.012768 -s 2 -d 0 -p tcp -e 1040 -c 0 -i 2 -a 0 -x {2.0 3.0 -1 ------- null}
+ -t 0.012768 -s 2 -d 0 -p tcp -e 1040 -c 0 -i 3 -a 0 -x {2.0 3.0 2 ------- null}
- -t 0.0136 -s 2 -d 0 -p tcp -e 1040 -c 0 -i 3 -a 0 -x {2.0 3.0 2 ------- null}
h -t 0.0136 -s 2 -d 0 -p tcp -e 1040 -c 0 -i 3 -a 0 -x {2.0 3.0 -1 ------- null}
r -t 0.0146 -s 2 -d 0 -p tcp -e 1040 -c 0 -i 2 -a 0 -x {2.0 3.0 1 ------- null}
+ -t 0.0146 -s 0 -d 1 -p tcp -e 1040 -c 0 -i 2 -a 0 -x {2.0 3.0 1 ------- null}
- -t 0.0146 -s 0 -d 1 -p tcp -e 1040 -c 0 -i 2 -a 0 -x {2.0 3.0 1 ------- null}
h -t 0.0146 -s 0 -d 1 -p tcp -e 1040 -c 0 -i 2 -a 0 -x {2.0 3.0 -1 ------- null}
r -t 0.015432 -s 2 -d 0 -p tcp -e 1040 -c 0 -i 3 -a 0 -x {2.0 3.0 2 ------- null}
+ -t 0.015432 -s 0 -d 1 -p tcp -e 1040 -c 0 -i 3 -a 0 -x {2.0 3.0 2 ------- null}
- -t 0.02292 -s 0 -d 1 -p tcp -e 1040 -c 0 -i 3 -a 0 -x {2.0 3.0 2 ------- null}
h -t 0.02292 -s 0 -d 1 -p tcp -e 1040 -c 0 -i 3 -a 0 -x {2.0 3.0 -1 ------- null}
r -t 0.02692 -s 0 -d 1 -p tcp -e 1040 -c 0 -i 2 -a 0 -x {2.0 3.0 1 ------- null}
+ -t 0.02692 -s 1 -d 3 -p tcp -e 1040 -c 0 -i 2 -a 0 -x {2.0 3.0 1 ------- null}
- -t 0.02692 -s 1 -d 3 -p tcp -e 1040 -c 0 -i 2 -a 0 -x {2.0 3.0 1 ------- null}
h -t 0.02692 -s 1 -d 3 -p tcp -e 1040 -c 0 -i 2 -a 0 -x {2.0 3.0 -1 ------- null}
r -t 0.028752 -s 1 -d 3 -p tcp -e 1040 -c 0 -i 2 -a 0 -x {2.0 3.0 1 ------- null}
+ -t 0.028752 -s 3 -d 1 -p ack -e 40 -c 0 -i 4 -a 0 -x {3.0 2.0 1 ------- null}
- -t 0.028752 -s 3 -d 1 -p ack -e 40 -c 0 -i 4 -a 0 -x {3.0 2.0 1 ------- null}
h -t 0.028752 -s 3 -d 1 -p ack -e 40 -c 0 -i 4 -a 0 -x {3.0 2.0 -1 ------- null}
r -t 0.029784 -s 3 -d 1 -p ack -e 40 -c 0 -i 4 -a 0 -x {3.0 2.0 1 ------- null}
+ -t 0.029784 -s 1 -d 0 -p ack -e 40 -c 0 -i 4 -a 0 -x {3.0 2.0 1 ------- null}
- -t 0.029784 -s 1 -d 0 -p ack -e 40 -c 0 -i 4 -a 0 -x {3.0 2.0 1 ------- null}
h -t 0.029784 -s 1 -d 0 -p ack -e 40 -c 0 -i 4 -a 0 -x {3.0 2.0 -1 ------- null}
r -t 0.034104 -s 1 -d 0 -p ack -e 40 -c 0 -i 4 -a 0 -x {3.0 2.0 1 ------- null}
+ -t 0.034104 -s 0 -d 2 -p ack -e 40 -c 0 -i 4 -a 0 -x {3.0 2.0 1 ------- null}
- -t 0.034104 -s 0 -d 2 -p ack -e 40 -c 0 -i 4 -a 0 -x {3.0 2.0 1 ------- null}
h -t 0.034104 -s 0 -d 2 -p ack -e 40 -c 0 -i 4 -a 0 -x {3.0 2.0 -1 ------- null}
r -t 0.035136 -s 0 -d 2 -p ack -e 40 -c 0 -i 4 -a 0 -x {3.0 2.0 1 ------- null}
+ -t 0.035136 -s 2 -d 0 -p tcp -e 1040 -c 0 -i 5 -a 0 -x {2.0 3.0 3 ------- null}
- -t 0.035136 -s 2 -d 0 -p tcp -e 1040 -c 0 -i 5 -a 0 -x {2.0 3.0 3 ------- null}
h -t 0.035136 -s 2 -d 0 -p tcp -e 1040 -c 0 -i 5 -a 0 -x {2.0 3.0 -1 ------- null}
+ -t 0.035136 -s 2 -d 0 -p tcp -e 1040 -c 0 -i 6 -a 0 -x {2.0 3.0 4 ------- null}
r -t 0.03524 -s 0 -d 1 -p tcp -e 1040 -c 0 -i 3 -a 0 -x {2.0 3.0 2 ------- null}
+ -t 0.03524 -s 1 -d 3 -p tcp -e 1040 -c 0 -i 3 -a 0 -x {2.0 3.0 2 ------- null}
- -t 0.03524 -s 1 -d 3 -p tcp -e 1040 -c 0 -i 3 -a 0 -x {2.0 3.0 2 ------- null}
h -t 0.03524 -s 1 -d 3 -p tcp -e 1040 -c 0 -i 3 -a 0 -x {2.0 3.0 -1 ------- null}
- -t 0.035968 -s 2 -d 0 -p tcp -e 1040 -c 0 -i 6 -a 0 -x {2.0 3.0 4 ------- null}
h -t 0.035968 -s 2 -d 0 -p tcp -e 1040 -c 0 -i 6 -a 0 -x {2.0 3.0 -1 ------- null}
r -t 0.036968 -s 2 -d 0 -p tcp -e 1040 -c 0 -i 5 -a 0 -x {2.0 3.0 3 ------- null}
+ -t 0.036968 -s 0 -d 1 -p tcp -e 1040 -c 0 -i 5 -a 0 -x {2.0 3.0 3 ------- null}
- -t 0.036968 -s 0 -d 1 -p tcp -e 1040 -c 0 -i 5 -a 0 -x {2.0 3.0 3 ------- null}
h -t 0.036968 -s 0 -d 1 -p tcp -e 1040 -c 0 -i 5 -a 0 -x {2.0 3.0 -1 ------- null}
r -t 0.037072 -s 1 -d 3 -p tcp -e 1040 -c 0 -i 3 -a 0 -x {2.0 3.0 2 ------- null}
+ -t 0.037072 -s 3 -d 1 -p ack -e 40 -c 0 -i 7 -a 0 -x {3.0 2.0 2 ------- null}
- -t 0.037072 -s 3 -d 1 -p ack -e 40 -c 0 -i 7 -a 0 -x {3.0 2.0 2 ------- null}
h -t 0.037072 -s 3 -d 1 -p ack -e 40 -c 0 -i 7 -a 0 -x {3.0 2.0 -1 ------- null}
r -t 0.0378 -s 2 -d 0 -p tcp -e 1040 -c 0 -i 6 -a 0 -x {2.0 3.0 4 ------- null}
+ -t 0.0378 -s 0 -d 1 -p tcp -e 1040 -c 0 -i 6 -a 0 -x {2.0 3.0 4 ------- null}
r -t 0.038104 -s 3 -d 1 -p ack -e 40 -c 0 -i 7 -a 0 -x {3.0 2.0 2 ------- null}
+ -t 0.038104 -s 1 -d 0 -p ack -e 40 -c 0 -i 7 -a 0 -x {3.0 2.0 2 ------- null}
- -t 0.038104 -s 1 -d 0 -p ack -e 40 -c 0 -i 7 -a 0 -x {3.0 2.0 2 ------- null}
h -t 0.038104 -s 1 -d 0 -p ack -e 40 -c 0 -i 7 -a 0 -x {3.0 2.0 -1 ------- null}
r -t 0.042424 -s 1 -d 0 -p ack -e 40 -c 0 -i 7 -a 0 -x {3.0 2.0 2 ------- null}
+ -t 0.042424 -s 0 -d 2 -p ack -e 40 -c 0 -i 7 -a 0 -x {3.0 2.0 2 ------- null}
- -t 0.042424 -s 0 -d 2 -p ack -e 40 -c 0 -i 7 -a 0 -x {3.0 2.0 2 ------- null}
h -t 0.042424 -s 0 -d 2 -p ack -e 40 -c 0 -i 7 -a 0 -x {3.0 2.0 -1 ------- null}
r -t 0.043456 -s 0 -d 2 -p ack -e 40 -c 0 -i 7 -a 0 -x {3.0 2.0 2 ------- null}
+ -t 0.043456 -s 2 -d 0 -p tcp -e 1040 -c 0 -i 8 -a 0 -x {2.0 3.0 5 ------- null}
- -t 0.043456 -s 2 -d 0 -p tcp -e 1040 -c 0 -i 8 -a 0 -x {2.0 3.0 5 ------- null}
h -t 0.043456 -s 2 -d 0 -p tcp -e 1040 -c 0 -i 8 -a 0 -x {2.0 3.0 -1 ------- null}
+ -t 0.043456 -s 2 -d 0 -p tcp -e 1040 -c 0 -i 9 -a 0 -x {2.0 3.0 6 ------- null}
- -t 0.044288 -s 2 -d 0 -p tcp -e 1040 -c 0 -i 9 -a 0 -x {2.0 3.0 6 ------- null}
h -t 0.044288 -s 2 -d 0 -p tcp -e 1040 -c 0 -i 9 -a 0 -x {2.0 3.0 -1 ------- null}
- -t 0.045288 -s 0 -d 1 -p tcp -e 1040 -c 0 -i 6 -a 0 -x {2.0 3.0 4 ------- null}
h -t 0.045288 -s 0 -d 1 -p tcp -e 1040 -c 0 -i 6 -a 0 -x {2.0 3.0 -1 ------- null}
r -t 0.045288 -s 2 -d 0 -p tcp -e 1040 -c 0 -i 8 -a 0 -x {2.0 3.0 5 ------- null}
+ -t 0.045288 -s 0 -d 1 -p tcp -e 1040 -c 0 -i 8 -a 0 -x {2.0 3.0 5 ------- null}
r -t 0.04612 -s 2 -d 0 -p tcp -e 1040 -c 0 -i 9 -a 0 -x {2.0 3.0 6 ------- null}
+ -t 0.04612 -s 0 -d 1 -p tcp -e 1040 -c 0 -i 9 -a 0 -x {2.0 3.0 6 ------- null}
r -t 0.049288 -s 0 -d 1 -p tcp -e 1040 -c 0 -i 5 -a 0 -x {2.0 3.0 3 ------- null}
+ -t 0.049288 -s 1 -d 3 -p tcp -e 1040 -c 0 -i 5 -a 0 -x {2.0 3.0 3 ------- null}
- -t 0.049288 -s 1 -d 3 -p tcp -e 1040 -c 0 -i 5 -a 0 -x {2.0 3.0 3 ------- null}
h -t 0.049288 -s 1 -d 3 -p tcp -e 1040 -c 0 -i 5 -a 0 -x {2.0 3.0 -1 ------- null}
r -t 0.05112 -s 1 -d 3 -p tcp -e 1040 -c 0 -i 5 -a 0 -x {2.0 3.0 3 ------- null}
+ -t 0.05112 -s 3 -d 1 -p ack -e 40 -c 0 -i 10 -a 0 -x {3.0 2.0 3 ------- null}
- -t 0.05112 -s 3 -d 1 -p ack -e 40 -c 0 -i 10 -a 0 -x {3.0 2.0 3 ------- null}
h -t 0.05112 -s 3 -d 1 -p ack -e 40 -c 0 -i 10 -a 0 -x {3.0 2.0 -1 ------- null}
r -t 0.052152 -s 3 -d 1 -p ack -e 40 -c 0 -i 10 -a 0 -x {3.0 2.0 3 ------- null}
+ -t 0.052152 -s 1 -d 0 -p ack -e 40 -c 0 -i 10 -a 0 -x {3.0 2.0 3 ------- null}
- -t 0.052152 -s 1 -d 0 -p ack -e 40 -c 0 -i 10 -a 0 -x {3.0 2.0 3 ------- null}
h -t 0.052152 -s 1 -d 0 -p ack -e 40 -c 0 -i 10 -a 0 -x {3.0 2.0 -1 ------- null}
- -t 0.053608 -s 0 -d 1 -p tcp -e 1040 -c 0 -i 8 -a 0 -x {2.0 3.0 5 ------- null}
h -t 0.053608 -s 0 -d 1 -p tcp -e 1040 -c 0 -i 8 -a 0 -x {2.0 3.0 -1 ------- null}
r -t 0.056472 -s 1 -d 0 -p ack -e 40 -c 0 -i 10 -a 0 -x {3.0 2.0 3 ------- null}
+ -t 0.056472 -s 0 -d 2 -p ack -e 40 -c 0 -i 10 -a 0 -x {3.0 2.0 3 ------- null}
- -t 0.056472 -s 0 -d 2 -p ack -e 40 -c 0 -i 10 -a 0 -x {3.0 2.0 3 ------- null}
h -t 0.056472 -s 0 -d 2 -p ack -e 40 -c 0 -i 10 -a 0 -x {3.0 2.0 -1 ------- null}
r -t 0.057504 -s 0 -d 2 -p ack -e 40 -c 0 -i 10 -a 0 -x {3.0 2.0 3 ------- null}
+ -t 0.057504 -s 2 -d 0 -p tcp -e 1040 -c 0 -i 11 -a 0 -x {2.0 3.0 7 ------- null}
- -t 0.057504 -s 2 -d 0 -p tcp -e 1040 -c 0 -i 11 -a 0 -x {2.0 3.0 7 ------- null}
h -t 0.057504 -s 2 -d 0 -p tcp -e 1040 -c 0 -i 11 -a 0 -x {2.0 3.0 -1 ------- null}
+ -t 0.057504 -s 2 -d 0 -p tcp -e 1040 -c 0 -i 12 -a 0 -x {2.0 3.0 8 ------- null}
r -t 0.057608 -s 0 -d 1 -p tcp -e 1040 -c 0 -i 6 -a 0 -x {2.0 3.0 4 ------- null}
+ -t 0.057608 -s 1 -d 3 -p tcp -e 1040 -c 0 -i 6 -a 0 -x {2.0 3.0 4 ------- null}
- -t 0.057608 -s 1 -d 3 -p tcp -e 1040 -c 0 -i 6 -a 0 -x {2.0 3.0 4 ------- null}
h -t 0.057608 -s 1 -d 3 -p tcp -e 1040 -c 0 -i 6 -a 0 -x {2.0 3.0 -1 ------- null}
- -t 0.058336 -s 2 -d 0 -p tcp -e 1040 -c 0 -i 12 -a 0 -x {2.0 3.0 8 ------- null}
h -t 0.058336 -s 2 -d 0 -p tcp -e 1040 -c 0 -i 12 -a 0 -x {2.0 3.0 -1 ------- null}
r -t 0.059336 -s 2 -d 0 -p tcp -e 1040 -c 0 -i 11 -a 0 -x {2.0 3.0 7 ------- null}
+ -t 0.059336 -s 0 -d 1 -p tcp -e 1040 -c 0 -i 11 -a 0 -x {2.0 3.0 7 ------- null}
r -t 0.05944 -s 1 -d 3 -p tcp -e 1040 -c 0 -i 6 -a 0 -x {2.0 3.0 4 ------- null}
+ -t 0.05944 -s 3 -d 1 -p ack -e 40 -c 0 -i 13 -a 0 -x {3.0 2.0 4 ------- null}
- -t 0.05944 -s 3 -d 1 -p ack -e 40 -c 0 -i 13 -a 0 -x {3.0 2.0 4 ------- null}
h -t 0.05944 -s 3 -d 1 -p ack -e 40 -c 0 -i 13 -a 0 -x {3.0 2.0 -1 ------- null}
r -t 0.060168 -s 2 -d 0 -p tcp -e 1040 -c 0 -i 12 -a 0 -x {2.0 3.0 8 ------- null}
+ -t 0.060168 -s 0 -d 1 -p tcp -e 1040 -c 0 -i 12 -a 0 -x {2.0 3.0 8 ------- null}
r -t 0.060472 -s 3 -d 1 -p ack -e 40 -c 0 -i 13 -a 0 -x {3.0 2.0 4 ------- null}
+ -t 0.060472 -s 1 -d 0 -p ack -e 40 -c 0 -i 13 -a 0 -x {3.0 2.0 4 ------- null}
- -t 0.060472 -s 1 -d 0 -p ack -e 40 -c 0 -i 13 -a 0 -x {3.0 2.0 4 ------- null}
h -t 0.060472 -s 1 -d 0 -p ack -e 40 -c 0 -i 13 -a 0 -x {3.0 2.0 -1 ------- null}
- -t 0.061928 -s 0 -d 1 -p tcp -e 1040 -c 0 -i 9 -a 0 -x {2.0 3.0 6 ------- null}
h -t 0.061928 -s 0 -d 1 -p tcp -e 1040 -c 0 -i 9 -a 0 -x {2.0 3.0 -1 ------- null}
r -t 0.064792 -s 1 -d 0 -p ack -e 40 -c 0 -i 13 -a 0 -x {3.0 2.0 4 ------- null}
+ -t 0.064792 -s 0 -d 2 -p ack -e 40 -c 0 -i 13 -a 0 -x {3.0 2.0 4 ------- null}
- -t 0.064792 -s 0 -d 2 -p ack -e 40 -c 0 -i 13 -a 0 -x {3.0 2.0 4 ------- null}
h -t 0.064792 -s 0 -d 2 -p ack -e 40 -c 0 -i 13 -a 0 -x {3.0 2.0 -1 ------- null}
r -t 0.065824 -s 0 -d 2 -p ack -e 40 -c 0 -i 13 -a 0 -x {3.0 2.0 4 ------- null}
+ -t 0.065824 -s 2 -d 0 -p tcp -e 1040 -c 0 -i 14 -a 0 -x {2.0 3.0 9 ------- null}
- -t 0.065824 -s 2 -d 0 -p tcp -e 1040 -c 0 -i 14 -a 0 -x {2.0 3.0 9 ------- null}
h -t 0.065824 -s 2 -d 0 -p tcp -e 1040 -c 0 -i 14 -a 0 -x {2.0 3.0 -1 ------- null}
+ -t 0.065824 -s 2 -d 0 -p tcp -e 1040 -c 0 -i 15 -a 0 -x {2.0 3.0 10 ------- null}
r -t 0.065928 -s 0 -d 1 -p tcp -e 1040 -c 0 -i 8 -a 0 -x {2.0 3.0 5 ------- null}
+ -t 0.065928 -s 1 -d 3 -p tcp -e 1040 -c 0 -i 8 -a 0 -x {2.0 3.0 5 ------- null}
- -t 0.065928 -s 1 -d 3 -p tcp -e 1040 -c 0 -i 8 -a 0 -x {2.0 3.0 5 ------- null}
h -t 0.065928 -s 1 -d 3 -p tcp -e 1040 -c 0 -i 8 -a 0 -x {2.0 3.0 -1 ------- null}
- -t 0.066656 -s 2 -d 0 -p tcp -e 1040 -c 0 -i 15 -a 0 -x {2.0 3.0 10 ------- null}
h -t 0.066656 -s 2 -d 0 -p tcp -e 1040 -c 0 -i 15 -a 0 -x {2.0 3.0 -1 ------- null}
r -t 0.067656 -s 2 -d 0 -p tcp -e 1040 -c 0 -i 14 -a 0 -x {2.0 3.0 9 ------- null}
+ -t 0.067656 -s 0 -d 1 -p tcp -e 1040 -c 0 -i 14 -a 0 -x {2.0 3.0 9 ------- null}
r -t 0.06776 -s 1 -d 3 -p tcp -e 1040 -c 0 -i 8 -a 0 -x {2.0 3.0 5 ------- null}
+ -t 0.06776 -s 3 -d 1 -p ack -e 40 -c 0 -i 16 -a 0 -x {3.0 2.0 5 ------- null}
- -t 0.06776 -s 3 -d 1 -p ack -e 40 -c 0 -i 16 -a 0 -x {3.0 2.0 5 ------- null}
h -t 0.06776 -s 3 -d 1 -p ack -e 40 -c 0 -i 16 -a 0 -x {3.0 2.0 -1 ------- null}
r -t 0.068488 -s 2 -d 0 -p tcp -e 1040 -c 0 -i 15 -a 0 -x {2.0 3.0 10 ------- null}
+ -t 0.068488 -s 0 -d 1 -p tcp -e 1040 -c 0 -i 15 -a 0 -x {2.0 3.0 10 ------- null}
r -t 0.068792 -s 3 -d 1 -p ack -e 40 -c 0 -i 16 -a 0 -x {3.0 2.0 5 ------- null}
+ -t 0.068792 -s 1 -d 0 -p ack -e 40 -c 0 -i 16 -a 0 -x {3.0 2.0 5 ------- null}
- -t 0.068792 -s 1 -d 0 -p ack -e 40 -c 0 -i 16 -a 0 -x {3.0 2.0 5 ------- null}
h -t 0.068792 -s 1 -d 0 -p ack -e 40 -c 0 -i 16 -a 0 -x {3.0 2.0 -1 ------- null}
- -t 0.070248 -s 0 -d 1 -p tcp -e 1040 -c 0 -i 11 -a 0 -x {2.0 3.0 7 ------- null}
h -t 0.070248 -s 0 -d 1 -p tcp -e 1040 -c 0 -i 11 -a 0 -x {2.0 3.0 -1 ------- null}
r -t 0.073112 -s 1 -d 0 -p ack -e 40 -c 0 -i 16 -a 0 -x {3.0 2.0 5 ------- null}
+ -t 0.073112 -s 0 -d 2 -p ack -e 40 -c 0 -i 16 -a 0 -x {3.0 2.0 5 ------- null}
- -t 0.073112 -s 0 -d 2 -p ack -e 40 -c 0 -i 16 -a 0 -x {3.0 2.0 5 ------- null}
h -t 0.073112 -s 0 -d 2 -p ack -e 40 -c 0 -i 16 -a 0 -x {3.0 2.0 -1 ------- null}
r -t 0.074144 -s 0 -d 2 -p ack -e 40 -c 0 -i 16 -a 0 -x {3.0 2.0 5 ------- null}
+ -t 0.074144 -s 2 -d 0 -p tcp -e 1040 -c 0 -i 17 -a 0 -x {2.0 3.0 11 ------- null}
- -t 0.074144 -s 2 -d 0 -p tcp -e 1040 -c 0 -i 17 -a 0 -x {2.0 3.0 11 ------- null}
h -t 0.074144 -s 2 -d 0 -p tcp -e 1040 -c 0 -i 17 -a 0 -x {2.0 3.0 -1 ------- null}
+ -t 0.074144 -s 2 -d 0 -p tcp -e 1040 -c 0 -i 18 -a 0 -x {2.0 3.0 12 ------- null}
r -t 0.074248 -s 0 -d 1 -p tcp -e 1040 -c 0 -i 9 -a 0 -x {2.0 3.0 6 ------- null}
+ -t 0.074248 -s 1 -d 3 -p tcp -e 1040 -c 0 -i 9 -a 0 -x {2.0 3.0 6 ------- null}
- -t 0.074248 -s 1 -d 3 -p tcp -e 1040 -c 0 -i 9 -a 0 -x {2.0 3.0 6 ------- null}
h -t 0.074248 -s 1 -d 3 -p tcp -e 1040 -c 0 -i 9 -a 0 -x {2.0 3.0 -1 ------- null}
- -t 0.074976 -s 2 -d 0 -p tcp -e 1040 -c 0 -i 18 -a 0 -x {2.0 3.0 12 ------- null}
h -t 0.074976 -s 2 -d 0 -p tcp -e 1040 -c 0 -i 18 -a 0 -x {2.0 3.0 -1 ------- null}
r -t 0.075976 -s 2 -d 0 -p tcp -e 1040 -c 0 -i 17 -a 0 -x {2.0 3.0 11 ------- null}
+ -t 0.075976 -s 0 -d 1 -p tcp -e 1040 -c 0 -i 17 -a 0 -x {2.0 3.0 11 ------- null}
r -t 0.07608 -s 1 -d 3 -p tcp -e 1040 -c 0 -i 9 -a 0 -x {2.0 3.0 6 ------- null}
+ -t 0.07608 -s 3 -d 1 -p ack -e 40 -c 0 -i 19 -a 0 -x {3.0 2.0 6 ------- null}
- -t 0.07608 -s 3 -d 1 -p ack -e 40 -c 0 -i 19 -a 0 -x {3.0 2.0 6 ------- null}
h -t 0.07608 -s 3 -d 1 -p ack -e 40 -c 0 -i 19 -a 0 -x {3.0 2.0 -1 ------- null}
r -t 0.076808 -s 2 -d 0 -p tcp -e 1040 -c 0 -i 18 -a 0 -x {2.0 3.0 12 ------- null}
+ -t 0.076808 -s 0 -d 1 -p tcp -e 1040 -c 0 -i 18 -a 0 -x {2.0 3.0 12 ------- null}
r -t 0.077112 -s 3 -d 1 -p ack -e 40 -c 0 -i 19 -a 0 -x {3.0 2.0 6 ------- null}
+ -t 0.077112 -s 1 -d 0 -p ack -e 40 -c 0 -i 19 -a 0 -x {3.0 2.0 6 ------- null}
- -t 0.077112 -s 1 -d 0 -p ack -e 40 -c 0 -i 19 -a 0 -x {3.0 2.0 6 ------- null}
h -t 0.077112 -s 1 -d 0 -p ack -e 40 -c 0 -i 19 -a 0 -x {3.0 2.0 -1 ------- null}
- -t 0.078568 -s 0 -d 1 -p tcp -e 1040 -c 0 -i 12 -a 0 -x {2.0 3.0 8 ------- null}
h -t 0.078568 -s 0 -d 1 -p tcp -e 1040 -c 0 -i 12 -a 0 -x {2.0 3.0 -1 ------- null}
r -t 0.081432 -s 1 -d 0 -p ack -e 40 -c 0 -i 19 -a 0 -x {3.0 2.0 6 ------- null}
+ -t 0.081432 -s 0 -d 2 -p ack -e 40 -c 0 -i 19 -a 0 -x {3.0 2.0 6 ------- null}
- -t 0.081432 -s 0 -d 2 -p ack -e 40 -c 0 -i 19 -a 0 -x {3.0 2.0 6 ------- null}
h -t 0.081432 -s 0 -d 2 -p ack -e 40 -c 0 -i 19 -a 0 -x {3.0 2.0 -1 ------- null}
r -t 0.082464 -s 0 -d 2 -p ack -e 40 -c 0 -i 19 -a 0 -x {3.0 2.0 6 ------- null}
+ -t 0.082464 -s 2 -d 0 -p tcp -e 1040 -c 0 -i 20 -a 0 -x {2.0 3.0 13 ------- null}
- -t 0.082464 -s 2 -d 0 -p tcp -e 1040 -c 0 -i 20 -a 0 -x {2.0 3.0 13 ------- null}
h -t 0.082464 -s 2 -d 0 -p tcp -e 1040 -c 0 -i 20 -a 0 -x {2.0 3.0 -1 ------- null}
+ -t 0.082464 -s 2 -d 0 -p tcp -e 1040 -c 0 -i 21 -a 0 -x {2.0 3.0 14 ------- null}
r -t 0.082568 -s 0 -d 1 -p tcp -e 1040 -c 0 -i 11 -a 0 -x {2.0 3.0 7 ------- null}
+ -t 0.082568 -s 1 -d 3 -p tcp -e 1040 -c 0 -i 11 -a 0 -x {2.0 3.0 7 ------- null}
- -t 0.082568 -s 1 -d 3 -p tcp -e 1040 -c 0 -i 11 -a 0 -x {2.0 3.0 7 ------- null}
h -t 0.082568 -s 1 -d 3 -p tcp -e 1040 -c 0 -i 11 -a 0 -x {2.0 3.0 -1 ------- null}
- -t 0.083296 -s 2 -d 0 -p tcp -e 1040 -c 0 -i 21 -a 0 -x {2.0 3.0 14 ------- null}
h -t 0.083296 -s 2 -d 0 -p tcp -e 1040 -c 0 -i 21 -a 0 -x {2.0 3.0 -1 ------- null}
r -t 0.084296 -s 2 -d 0 -p tcp -e 1040 -c 0 -i 20 -a 0 -x {2.0 3.0 13 ------- null}
+ -t 0.084296 -s 0 -d 1 -p tcp -e 1040 -c 0 -i 20 -a 0 -x {2.0 3.0 13 ------- null}
r -t 0.0844 -s 1 -d 3 -p tcp -e 1040 -c 0 -i 11 -a 0 -x {2.0 3.0 7 ------- null}
+ -t 0.0844 -s 3 -d 1 -p ack -e 40 -c 0 -i 22 -a 0 -x {3.0 2.0 7 ------- null}
- -t 0.0844 -s 3 -d 1 -p ack -e 40 -c 0 -i 22 -a 0 -x {3.0 2.0 7 ------- null}
h -t 0.0844 -s 3 -d 1 -p ack -e 40 -c 0 -i 22 -a 0 -x {3.0 2.0 -1 ------- null}
r -t 0.085128 -s 2 -d 0 -p tcp -e 1040 -c 0 -i 21 -a 0 -x {2.0 3.0 14 ------- null}
+ -t 0.085128 -s 0 -d 1 -p tcp -e 1040 -c 0 -i 21 -a 0 -x {2.0 3.0 14 ------- null}
r -t 0.085432 -s 3 -d 1 -p ack -e 40 -c 0 -i 22 -a 0 -x {3.0 2.0 7 ------- null}
+ -t 0.085432 -s 1 -d 0 -p ack -e 40 -c 0 -i 22 -a 0 -x {3.0 2.0 7 ------- null}
- -t 0.085432 -s 1 -d 0 -p ack -e 40 -c 0 -i 22 -a 0 -x {3.0 2.0 7 ------- null}
h -t 0.085432 -s 1 -d 0 -p ack -e 40 -c 0 -i 22 -a 0 -x {3.0 2.0 -1 ------- null}
- -t 0.086888 -s 0 -d 1 -p tcp -e 1040 -c 0 -i 14 -a 0 -x {2.0 3.0 9 ------- null}
h -t 0.086888 -s 0 -d 1 -p tcp -e 1040 -c 0 -i 14 -a 0 -x {2.0 3.0 -1 ------- null}
r -t 0.089752 -s 1 -d 0 -p ack -e 40 -c 0 -i 22 -a 0 -x {3.0 2.0 7 ------- null}
+ -t 0.089752 -s 0 -d 2 -p ack -e 40 -c 0 -i 22 -a 0 -x {3.0 2.0 7 ------- null}
- -t 0.089752 -s 0 -d 2 -p ack -e 40 -c 0 -i 22 -a 0 -x {3.0 2.0 7 ------- null}
h -t 0.089752 -s 0 -d 2 -p ack -e 40 -c 0 -i 22 -a 0 -x {3.0 2.0 -1 ------- null}
r -t 0.090784 -s 0 -d 2 -p ack -e 40 -c 0 -i 22 -a 0 -x {3.0 2.0 7 ------- null}
+ -t 0.090784 -s 2 -d 0 -p tcp -e 1040 -c 0 -i 23 -a 0 -x {2.0 3.0 15 ------- null}
- -t 0.090784 -s 2 -d 0 -p tcp -e 1040 -c 0 -i 23 -a 0 -x {2.0 3.0 15 ------- null}
h -t 0.090784 -s 2 -d 0 -p tcp -e 1040 -c 0 -i 23 -a 0 -x {2.0 3.0 -1 ------- null}
+ -t 0.090784 -s 2 -d 0 -p tcp -e 1040 -c 0 -i 24 -a 0 -x {2.0 3.0 16 ------- null}
r -t 0.090888 -s 0 -d 1 -p tcp -e 1040 -c 0 -i 12 -a 0 -x {2.0 3.0 8 ------- null}
+ -t 0.090888 -s 1 -d 3 -p tcp -e 1040 -c 0 -i 12 -a 0 -x {2.0 3.0 8 ------- null}
- -t 0.090888 -s 1 -d 3 -p tcp -e 1040 -c 0 -i 12 -a 0 -x {2.0 3.0 8 ------- null}
h -t 0.090888 -s 1 -d 3 -p tcp -e 1040 -c 0 -i 12 -a 0 -x {2.0 3.0 -1 ------- null}
- -t 0.091616 -s 2 -d 0 -p tcp -e 1040 -c 0 -i 24 -a 0 -x {2.0 3.0 16 ------- null}
h -t 0.091616 -s 2 -d 0 -p tcp -e 1040 -c 0 -i 24 -a 0 -x {2.0 3.0 -1 ------- null}
r -t 0.092616 -s 2 -d 0 -p tcp -e 1040 -c 0 -i 23 -a 0 -x {2.0 3.0 15 ------- null}
+ -t 0.092616 -s 0 -d 1 -p tcp -e 1040 -c 0 -i 23 -a 0 -x {2.0 3.0 15 ------- null}
r -t 0.09272 -s 1 -d 3 -p tcp -e 1040 -c 0 -i 12 -a 0 -x {2.0 3.0 8 ------- null}
+ -t 0.09272 -s 3 -d 1 -p ack -e 40 -c 0 -i 25 -a 0 -x {3.0 2.0 8 ------- null}
- -t 0.09272 -s 3 -d 1 -p ack -e 40 -c 0 -i 25 -a 0 -x {3.0 2.0 8 ------- null}
h -t 0.09272 -s 3 -d 1 -p ack -e 40 -c 0 -i 25 -a 0 -x {3.0 2.0 -1 ------- null}
r -t 0.093448 -s 2 -d 0 -p tcp -e 1040 -c 0 -i 24 -a 0 -x {2.0 3.0 16 ------- null}
+ -t 0.093448 -s 0 -d 1 -p tcp -e 1040 -c 0 -i 24 -a 0 -x {2.0 3.0 16 ------- null}
r -t 0.093752 -s 3 -d 1 -p ack -e 40 -c 0 -i 25 -a 0 -x {3.0 2.0 8 ------- null}
+ -t 0.093752 -s 1 -d 0 -p ack -e 40 -c 0 -i 25 -a 0 -x {3.0 2.0 8 ------- null}
- -t 0.093752 -s 1 -d 0 -p ack -e 40 -c 0 -i 25 -a 0 -x {3.0 2.0 8 ------- null}
h -t 0.093752 -s 1 -d 0 -p ack -e 40 -c 0 -i 25 -a 0 -x {3.0 2.0 -1 ------- null}
- -t 0.095208 -s 0 -d 1 -p tcp -e 1040 -c 0 -i 15 -a 0 -x {2.0 3.0 10 ------- null}
h -t 0.095208 -s 0 -d 1 -p tcp -e 1040 -c 0 -i 15 -a 0 -x {2.0 3.0 -1 ------- null}
r -t 0.098072 -s 1 -d 0 -p ack -e 40 -c 0 -i 25 -a 0 -x {3.0 2.0 8 ------- null}
+ -t 0.098072 -s 0 -d 2 -p ack -e 40 -c 0 -i 25 -a 0 -x {3.0 2.0 8 ------- null}
- -t 0.098072 -s 0 -d 2 -p ack -e 40 -c 0 -i 25 -a 0 -x {3.0 2.0 8 ------- null}
h -t 0.098072 -s 0 -d 2 -p ack -e 40 -c 0 -i 25 -a 0 -x {3.0 2.0 -1 ------- null}
r -t 0.099104 -s 0 -d 2 -p ack -e 40 -c 0 -i 25 -a 0 -x {3.0 2.0 8 ------- null}
+ -t 0.099104 -s 2 -d 0 -p tcp -e 1040 -c 0 -i 26 -a 0 -x {2.0 3.0 17 ------- null}
- -t 0.099104 -s 2 -d 0 -p tcp -e 1040 -c 0 -i 26 -a 0 -x {2.0 3.0 17 ------- null}
h -t 0.099104 -s 2 -d 0 -p tcp -e 1040 -c 0 -i 26 -a 0 -x {2.0 3.0 -1 ------- null}
+ -t 0.099104 -s 2 -d 0 -p tcp -e 1040 -c 0 -i 27 -a 0 -x {2.0 3.0 18 ------- null}
r -t 0.099208 -s 0 -d 1 -p tcp -e 1040 -c 0 -i 14 -a 0 -x {2.0 3.0 9 ------- null}
+ -t 0.099208 -s 1 -d 3 -p tcp -e 1040 -c 0 -i 14 -a 0 -x {2.0 3.0 9 ------- null}
- -t 0.099208 -s 1 -d 3 -p tcp -e 1040 -c 0 -i 14 -a 0 -x {2.0 3.0 9 ------- null}
h -t 0.099208 -s 1 -d 3 -p tcp -e 1040 -c 0 -i 14 -a 0 -x {2.0 3.0 -1 ------- null}
- -t 0.099936 -s 2 -d 0 -p tcp -e 1040 -c 0 -i 27 -a 0 -x {2.0 3.0 18 ------- null}
h -t 0.099936 -s 2 -d 0 -p tcp -e 1040 -c 0 -i 27 -a 0 -x {2.0 3.0 -1 ------- null}
r -t 0.100936 -s 2 -d 0 -p tcp -e 1040 -c 0 -i 26 -a 0 -x {2.0 3.0 17 ------- null}
+ -t 0.100936 -s 0 -d 1 -p tcp -e 1040 -c 0 -i 26 -a 0 -x {2.0 3.0 17 ------- null}
r -t 0.10104 -s 1 -d 3 -p tcp -e 1040 -c 0 -i 14 -a 0 -x {2.0 3.0 9 ------- null}
+ -t 0.10104 -s 3 -d 1 -p ack -e 40 -c 0 -i 28 -a 0 -x {3.0 2.0 9 ------- null}
- -t 0.10104 -s 3 -d 1 -p ack -e 40 -c 0 -i 28 -a 0 -x {3.0 2.0 9 ------- null}
h -t 0.10104 -s 3 -d 1 -p ack -e 40 -c 0 -i 28 -a 0 -x {3.0 2.0 -1 ------- null}
r -t 0.101768 -s 2 -d 0 -p tcp -e 1040 -c 0 -i 27 -a 0 -x {2.0 3.0 18 ------- null}
+ -t 0.101768 -s 0 -d 1 -p tcp -e 1040 -c 0 -i 27 -a 0 -x {2.0 3.0 18 ------- null}
r -t 0.102072 -s 3 -d 1 -p ack -e 40 -c 0 -i 28 -a 0 -x {3.0 2.0 9 ------- null}
+ -t 0.102072 -s 1 -d 0 -p ack -e 40 -c 0 -i 28 -a 0 -x {3.0 2.0 9 ------- null}
- -t 0.102072 -s 1 -d 0 -p ack -e 40 -c 0 -i 28 -a 0 -x {3.0 2.0 9 ------- null}
h -t 0.102072 -s 1 -d 0 -p ack -e 40 -c 0 -i 28 -a 0 -x {3.0 2.0 -1 ------- null}
- -t 0.103528 -s 0 -d 1 -p tcp -e 1040 -c 0 -i 17 -a 0 -x {2.0 3.0 11 ------- null}
h -t 0.103528 -s 0 -d 1 -p tcp -e 1040 -c 0 -i 17 -a 0 -x {2.0 3.0 -1 ------- null}
r -t 0.106392 -s 1 -d 0 -p ack -e 40 -c 0 -i 28 -a 0 -x {3.0 2.0 9 ------- null}
+ -t 0.106392 -s 0 -d 2 -p ack -e 40 -c 0 -i 28 -a 0 -x {3.0 2.0 9 ------- null}
- -t 0.106392 -s 0 -d 2 -p ack -e 40 -c 0 -i 28 -a 0 -x {3.0 2.0 9 ------- null}
h -t 0.106392 -s 0 -d 2 -p ack -e 40 -c 0 -i 28 -a 0 -x {3.0 2.0 -1 ------- null}
r -t 0.107424 -s 0 -d 2 -p ack -e 40 -c 0 -i 28 -a 0 -x {3.0 2.0 9 ------- null}
+ -t 0.107424 -s 2 -d 0 -p tcp -e 1040 -c 0 -i 29 -a 0 -x {2.0 3.0 19 ------- null}
- -t 0.107424 -s 2 -d 0 -p tcp -e 1040 -c 0 -i 29 -a 0 -x {2.0 3.0 19 ------- null}
h -t 0.107424 -s 2 -d 0 -p tcp -e 1040 -c 0 -i 29 -a 0 -x {2.0 3.0 -1 ------- null}
+ -t 0.107424 -s 2 -d 0 -p tcp -e 1040 -c 0 -i 30 -a 0 -x {2.0 3.0 20 ------- null}
r -t 0.107528 -s 0 -d 1 -p tcp -e 1040 -c 0 -i 15 -a 0 -x {2.0 3.0 10 ------- null}
+ -t 0.107528 -s 1 -d 3 -p tcp -e 1040 -c 0 -i 15 -a 0 -x {2.0 3.0 10 ------- null}
- -t 0.107528 -s 1 -d 3 -p tcp -e 1040 -c 0 -i 15 -a 0 -x {2.0 3.0 10 ------- null}
h -t 0.107528 -s 1 -d 3 -p tcp -e 1040 -c 0 -i 15 -a 0 -x {2.0 3.0 -1 ------- null}
- -t 0.108256 -s 2 -d 0 -p tcp -e 1040 -c 0 -i 30 -a 0 -x {2.0 3.0 20 ------- null}
h -t 0.108256 -s 2 -d 0 -p tcp -e 1040 -c 0 -i 30 -a 0 -x {2.0 3.0 -1 ------- null}
r -t 0.109256 -s 2 -d 0 -p tcp -e 1040 -c 0 -i 29 -a 0 -x {2.0 3.0 19 ------- null}
+ -t 0.109256 -s 0 -d 1 -p tcp -e 1040 -c 0 -i 29 -a 0 -x {2.0 3.0 19 ------- null}
r -t 0.10936 -s 1 -d 3 -p tcp -e 1040 -c 0 -i 15 -a 0 -x {2.0 3.0 10 ------- null}
+ -t 0.10936 -s 3 -d 1 -p ack -e 40 -c 0 -i 31 -a 0 -x {3.0 2.0 10 ------- null}
- -t 0.10936 -s 3 -d 1 -p ack -e 40 -c 0 -i 31 -a 0 -x {3.0 2.0 10 ------- null}
h -t 0.10936 -s 3 -d 1 -p ack -e 40 -c 0 -i 31 -a 0 -x {3.0 2.0 -1 ------- null}
r -t 0.110088 -s 2 -d 0 -p tcp -e 1040 -c 0 -i 30 -a 0 -x {2.0 3.0 20 ------- null}
+ -t 0.110088 -s 0 -d 1 -p tcp -e 1040 -c 0 -i 30 -a 0 -x {2.0 3.0 20 ------- null}
r -t 0.110392 -s 3 -d 1 -p ack -e 40 -c 0 -i 31 -a 0 -x {3.0 2.0 10 ------- null}
+ -t 0.110392 -s 1 -d 0 -p ack -e 40 -c 0 -i 31 -a 0 -x {3.0 2.0 10 ------- null}
- -t 0.110392 -s 1 -d 0 -p ack -e 40 -c 0 -i 31 -a 0 -x {3.0 2.0 10 ------- null}
h -t 0.110392 -s 1 -d 0 -p ack -e 40 -c 0 -i 31 -a 0 -x {3.0 2.0 -1 ------- null}
- -t 0.111848 -s 0 -d 1 -p tcp -e 1040 -c 0 -i 18 -a 0 -x {2.0 3.0 12 ------- null}
h -t 0.111848 -s 0 -d 1 -p tcp -e 1040 -c 0 -i 18 -a 0 -x {2.0 3.0 -1 ------- null}
r -t 0.114712 -s 1 -d 0 -p ack -e 40 -c 0 -i 31 -a 0 -x {3.0 2.0 10 ------- null}
+ -t 0.114712 -s 0 -d 2 -p ack -e 40 -c 0 -i 31 -a 0 -x {3.0 2.0 10 ------- null}
- -t 0.114712 -s 0 -d 2 -p ack -e 40 -c 0 -i 31 -a 0 -x {3.0 2.0 10 ------- null}
h -t 0.114712 -s 0 -d 2 -p ack -e 40 -c 0 -i 31 -a 0 -x {3.0 2.0 -1 ------- null}
r -t 0.115744 -s 0 -d 2 -p ack -e 40 -c 0 -i 31 -a 0 -x {3.0 2.0 10 ------- null}
+ -t 0.115744 -s 2 -d 0 -p tcp -e 1040 -c 0 -i 32 -a 0 -x {2.0 3.0 21 ------- null}
- -t 0.115744 -s 2 -d 0 -p tcp -e 1040 -c 0 -i 32 -a 0 -x {2.0 3.0 21 ------- null}
h -t 0.115744 -s 2 -d 0 -p tcp -e 1040 -c 0 -i 32 -a 0 -x {2.0 3.0 -1 ------- null}
+ -t 0.115744 -s 2 -d 0 -p tcp -e 1040 -c 0 -i 33 -a 0 -x {2.0 3.0 22 ------- null}
r -t 0.115848 -s 0 -d 1 -p tcp -e 1040 -c 0 -i 17 -a 0 -x {2.0 3.0 11 ------- null}
+ -t 0.115848 -s 1 -d 3 -p tcp -e 1040 -c 0 -i 17 -a 0 -x {2.0 3.0 11 ------- null}
- -t 0.115848 -s 1 -d 3 -p tcp -e 1040 -c 0 -i 17 -a 0 -x {2.0 3.0 11 ------- null}
h -t 0.115848 -s 1 -d 3 -p tcp -e 1040 -c 0 -i 17 -a 0 -x {2.0 3.0 -1 ------- null}
- -t 0.116576 -s 2 -d 0 -p tcp -e 1040 -c 0 -i 33 -a 0 -x {2.0 3.0 22 ------- null}
h -t 0.116576 -s 2 -d 0 -p tcp -e 1040 -c 0 -i 33 -a 0 -x {2.0 3.0 -1 ------- null}
r -t 0.117576 -s 2 -d 0 -p tcp -e 1040 -c 0 -i 32 -a 0 -x {2.0 3.0 21 ------- null}
+ -t 0.117576 -s 0 -d 1 -p tcp -e 1040 -c 0 -i 32 -a 0 -x {2.0 3.0 21 ------- null}
r -t 0.11768 -s 1 -d 3 -p tcp -e 1040 -c 0 -i 17 -a 0 -x {2.0 3.0 11 ------- null}
+ -t 0.11768 -s 3 -d 1 -p ack -e 40 -c 0 -i 34 -a 0 -x {3.0 2.0 11 ------- null}
- -t 0.11768 -s 3 -d 1 -p ack -e 40 -c 0 -i 34 -a 0 -x {3.0 2.0 11 ------- null}
h -t 0.11768 -s 3 -d 1 -p ack -e 40 -c 0 -i 34 -a 0 -x {3.0 2.0 -1 ------- null}
r -t 0.118408 -s 2 -d 0 -p tcp -e 1040 -c 0 -i 33 -a 0 -x {2.0 3.0 22 ------- null}
+ -t 0.118408 -s 0 -d 1 -p tcp -e 1040 -c 0 -i 33 -a 0 -x {2.0 3.0 22 ------- null}
r -t 0.118712 -s 3 -d 1 -p ack -e 40 -c 0 -i 34 -a 0 -x {3.0 2.0 11 ------- null}
+ -t 0.118712 -s 1 -d 0 -p ack -e 40 -c 0 -i 34 -a 0 -x {3.0 2.0 11 ------- null}
- -t 0.118712 -s 1 -d 0 -p ack -e 40 -c 0 -i 34 -a 0 -x {3.0 2.0 11 ------- null}
h -t 0.118712 -s 1 -d 0 -p ack -e 40 -c 0 -i 34 -a 0 -x {3.0 2.0 -1 ------- null}
- -t 0.120168 -s 0 -d 1 -p tcp -e 1040 -c 0 -i 20 -a 0 -x {2.0 3.0 13 ------- null}
h -t 0.120168 -s 0 -d 1 -p tcp -e 1040 -c 0 -i 20 -a 0 -x {2.0 3.0 -1 ------- null}
r -t 0.123032 -s 1 -d 0 -p ack -e 40 -c 0 -i 34 -a 0 -x {3.0 2.0 11 ------- null}
+ -t 0.123032 -s 0 -d 2 -p ack -e 40 -c 0 -i 34 -a 0 -x {3.0 2.0 11 ------- null}
- -t 0.123032 -s 0 -d 2 -p ack -e 40 -c 0 -i 34 -a 0 -x {3.0 2.0 11 ------- null}
h -t 0.123032 -s 0 -d 2 -p ack -e 40 -c 0 -i 34 -a 0 -x {3.0 2.0 -1 ------- null}
r -t 0.124064 -s 0 -d 2 -p ack -e 40 -c 0 -i 34 -a 0 -x {3.0 2.0 11 ------- null}
+ -t 0.124064 -s 2 -d 0 -p tcp -e 1040 -c 0 -i 35 -a 0 -x {2.0 3.0 23 ------- null}
- -t 0.124064 -s 2 -d 0 -p tcp -e 1040 -c 0 -i 35 -a 0 -x {2.0 3.0 23 ------- null}
h -t 0.124064 -s 2 -d 0 -p tcp -e 1040 -c 0 -i 35 -a 0 -x {2.0 3.0 -1 ------- null}
+ -t 0.124064 -s 2 -d 0 -p tcp -e 1040 -c 0 -i 36 -a 0 -x {2.0 3.0 24 ------- null}
r -t 0.124168 -s 0 -d 1 -p tcp -e 1040 -c 0 -i 18 -a 0 -x {2.0 3.0 12 ------- null}
+ -t 0.124168 -s 1 -d 3 -p tcp -e 1040 -c 0 -i 18 -a 0 -x {2.0 3.0 12 ------- null}
- -t 0.124168 -s 1 -d 3 -p tcp -e 1040 -c 0 -i 18 -a 0 -x {2.0 3.0 12 ------- null}
h -t 0.124168 -s 1 -d 3 -p tcp -e 1040 -c 0 -i 18 -a 0 -x {2.0 3.0 -1 ------- null}
- -t 0.124896 -s 2 -d 0 -p tcp -e 1040 -c 0 -i 36 -a 0 -x {2.0 3.0 24 ------- null}
h -t 0.124896 -s 2 -d 0 -p tcp -e 1040 -c 0 -i 36 -a 0 -x {2.0 3.0 -1 ------- null}
r -t 0.125896 -s 2 -d 0 -p tcp -e 1040 -c 0 -i 35 -a 0 -x {2.0 3.0 23 ------- null}
+ -t 0.125896 -s 0 -d 1 -p tcp -e 1040 -c 0 -i 35 -a 0 -x {2.0 3.0 23 ------- null}