V -t * -v 1.0a5 -a 0
A -t * -n 1 -p 0 -o 0x7fffffff -c 30 -a 1
A -t * -h 1 -m 1073741823 -s 0
n -t * -a 0 -s 0 -S UP -v circle -c black -i black
n -t * -a 1 -s 1 -S UP -v circle -c black -i black
n -t * -a 2 -s 2 -S UP -v circle -c black -i black
n -t * -a 3 -s 3 -S UP -v circle -c black -i black
l -t * -s 2 -d 0 -S UP -r 10000000 -D 0.001 -c black
l -t * -s 0 -d 1 -S UP -r 1000000 -D 0.0040000000000000001 -c black
l -t * -s 1 -d 3 -S UP -r 10000000 -D 0.001 -c black
+ -t 0 -s 2 -d 0 -p tcp -e 1000 -c 0 -i 0 -a 0 -x {2.0 3.0 0 ------- null}
- -t 0 -s 2 -d 0 -p tcp -e 1000 -c 0 -i 0 -a 0 -x {2.0 3.0 0 ------- null}
h -t 0 -s 2 -d 0 -p tcp -e 1000 -c 0 -i 0 -a 0 -x {2.0 3.0 -1 ------- null}
r -t 0.0018 -s 2 -d 0 -p tcp -e 1000 -c 0 -i 0 -a 0 -x {2.0 3.0 0 ------- null}
+ -t 0.0018 -s 0 -d 1 -p tcp -e 1000 -c 0 -i 0 -a 0 -x {2.0 3.0 0 ------- null}
- -t 0.0018 -s 0 -d 1 -p tcp -e 1000 -c 0 -i 0 -a 0 -x {2.0 3.0 0 ------- null}
h -t 0.0018 -s 0 -d 1 -p tcp -e 1000 -c 0 -i 0 -a 0 -x {2.0 3.0 -1 ------- null}
r -t 0.0138 -s 0 -d 1 -p tcp -e 1000 -c 0 -i 0 -a 0 -x {2.0 3.0 0 ------- null}
+ -t 0.0138 -s 1 -d 3 -p tcp -e 1000 -c 0 -i 0 -a 0 -x {2.0 3.0 0 ------- null}
- -t 0.0138 -s 1 -d 3 -p tcp -e 1000 -c 0 -i 0 -a 0 -x {2.0 3.0 0 ------- null}
h -t 0.0138 -s 1 -d 3 -p tcp -e 1000 -c 0 -i 0 -a 0 -x {2.0 3.0 -1 ------- null}
r -t 0.0156 -s 1 -d 3 -p tcp -e 1000 -c 0 -i 0 -a 0 -x {2.0 3.0 0 ------- null}
+ -t 0.0156 -s 3 -d 1 -p ack -e 40 -c 0 -i 1 -a 0 -x {3.0 2.0 0 ------- null}
- -t 0.0156 -s 3 -d 1 -p ack -e 40 -c 0 -i 1 -a 0 -x {3.0 2.0 0 ------- null}
h -t 0.0156 -s 3 -d 1 -p ack -e 40 -c 0 -i 1 -a 0 -x {3.0 2.0 -1 ------- null}
r -t 0.016632 -s 3 -d 1 -p ack -e 40 -c 0 -i 1 -a 0 -x {3.0 2.0 0 ------- null}
+ -t 0.016632 -s 1 -d 0 -p ack -e 40 -c 0 -i 1 -a 0 -x {3.0 2.0 0 ------- null}
- -t 0.016632 -s 1 -d 0 -p ack -e 40 -c 0 -i 1 -a 0 -x {3.0 2.0 0 ------- null}
h -t 0.016632 -s 1 -d 0 -p ack -e 40 -c 0 -i 1 -a 0 -x {3.0 2.0 -1 ------- null}
r -t 0.020952 -s 1 -d 0 -p ack -e 40 -c 0 -i 1 -a 0 -x {3.0 2.0 0 ------- null}
+ -t 0.020952 -s 0 -d 2 -p ack -e 40 -c 0 -i 1 -a 0 -x {3.0 2.0 0 ------- null}
- -t 0.020952 -s 0 -d 2 -p ack -e 40 -c 0 -i 1 -a 0 -x {3.0 2.0 0 ------- null}
h -t 0.020952 -s 0 -d 2 -p ack -e 40 -c 0 -i 1 -a 0 -x {3.0 2.0 -1 ------- null}
r -t 0.021984 -s 0 -d 2 -p ack -e 40 -c 0 -i 1 -a 0 -x {3.0 2.0 0 ------- null}
+ -t 0.021984 -s 2 -d 0 -p tcp -e 1000 -c 0 -i 2 -a 0 -x {2.0 3.0 1 ------- null}
- -t 0.021984 -s 2 -d 0 -p tcp -e 1000 -c 0 -i 2 -a 0 -x {2.0 3.0 1 ------- null}
h -t 0.021984 -s 2 -d 0 -p tcp -e 1000 -c 0 -i 2 -a 0 -x {2.0 3.0 -1 ------- null}
r -t 0.023784 -s 2 -d 0 -p tcp -e 1000 -c 0 -i 2 -a 0 -x {2.0 3.0 1 ------- null}
+ -t 0.023784 -s 0 -d 1 -p tcp -e 1000 -c 0 -i 2 -a 0 -x {2.0 3.0 1 ------- null}
- -t 0.023784 -s 0 -d 1 -p tcp -e 1000 -c 0 -i 2 -a 0 -x {2.0 3.0 1 ------- null}
h -t 0.023784 -s 0 -d 1 -p tcp -e 1000 -c 0 -i 2 -a 0 -x {2.0 3.0 -1 ------- null}
r -t 0.035784 -s 0 -d 1 -p tcp -e 1000 -c 0 -i 2 -a 0 -x {2.0 3.0 1 ------- null}
+ -t 0.035784 -s 1 -d 3 -p tcp -e 1000 -c 0 -i 2 -a 0 -x {2.0 3.0 1 ------- null}
- -t 0.035784 -s 1 -d 3 -p tcp -e 1000 -c 0 -i 2 -a 0 -x {2.0 3.0 1 ------- null}
h -t 0.035784 -s 1 -d 3 -p tcp -e 1000 -c 0 -i 2 -a 0 -x {2.0 3.0 -1 ------- null}
r -t 0.037584 -s 1 -d 3 -p tcp -e 1000 -c 0 -i 2 -a 0 -x {2.0 3.0 1 ------- null}
+ -t 0.037584 -s 3 -d 1 -p ack -e 40 -c 0 -i 3 -a 0 -x {3.0 2.0 1 ------- null}
- -t 0.037584 -s 3 -d 1 -p ack -e 40 -c 0 -i 3 -a 0 -x {3.0 2.0 1 ------- null}
h -t 0.037584 -s 3 -d 1 -p ack -e 40 -c 0 -i 3 -a 0 -x {3.0 2.0 -1 ------- null}
r -t 0.038616 -s 3 -d 1 -p ack -e 40 -c 0 -i 3 -a 0 -x {3.0 2.0 1 ------- null}
+ -t 0.038616 -s 1 -d 0 -p ack -e 40 -c 0 -i 3 -a 0 -x {3.0 2.0 1 ------- null}
- -t 0.038616 -s 1 -d 0 -p ack -e 40 -c 0 -i 3 -a 0 -x {3.0 2.0 1 ------- null}
h -t 0.038616 -s 1 -d 0 -p ack -e 40 -c 0 -i 3 -a 0 -x {3.0 2.0 -1 ------- null}
r -t 0.042936 -s 1 -d 0 -p ack -e 40 -c 0 -i 3 -a 0 -x {3.0 2.0 1 ------- null}
+ -t 0.042936 -s 0 -d 2 -p ack -e 40 -c 0 -i 3 -a 0 -x {3.0 2.0 1 ------- null}
- -t 0.042936 -s 0 -d 2 -p ack -e 40 -c 0 -i 3 -a 0 -x {3.0 2.0 1 ------- null}
h -t 0.042936 -s 0 -d 2 -p ack -e 40 -c 0 -i 3 -a 0 -x {3.0 2.0 -1 ------- null}
r -t 0.043968 -s 0 -d 2 -p ack -e 40 -c 0 -i 3 -a 0 -x {3.0 2.0 1 ------- null}
+ -t 0.043968 -s 2 -d 0 -p tcp -e 1000 -c 0 -i 4 -a 0 -x {2.0 3.0 2 ------- null}
- -t 0.043968 -s 2 -d 0 -p tcp -e 1000 -c 0 -i 4 -a 0 -x {2.0 3.0 2 ------- null}
h -t 0.043968 -s 2 -d 0 -p tcp -e 1000 -c 0 -i 4 -a 0 -x {2.0 3.0 -1 ------- null}
+ -t 0.043968 -s 2 -d 0 -p tcp -e 1000 -c 0 -i 5 -a 0 -x {2.0 3.0 3 ------- null}
+ -t 0.043968 -s 2 -d 0 -p tcp -e 1000 -c 0 -i 6 -a 0 -x {2.0 3.0 4 ------- null}
- -t 0.044768 -s 2 -d 0 -p tcp -e 1000 -c 0 -i 5 -a 0 -x {2.0 3.0 3 ------- null}
h -t 0.044768 -s 2 -d 0 -p tcp -e 1000 -c 0 -i 5 -a 0 -x {2.0 3.0 -1 ------- null}
- -t 0.045568 -s 2 -d 0 -p tcp -e 1000 -c 0 -i 6 -a 0 -x {2.0 3.0 4 ------- null}
h -t 0.045568 -s 2 -d 0 -p tcp -e 1000 -c 0 -i 6 -a 0 -x {2.0 3.0 -1 ------- null}
r -t 0.045768 -s 2 -d 0 -p tcp -e 1000 -c 0 -i 4 -a 0 -x {2.0 3.0 2 ------- null}
+ -t 0.045768 -s 0 -d 1 -p tcp -e 1000 -c 0 -i 4 -a 0 -x {2.0 3.0 2 ------- null}
- -t 0.045768 -s 0 -d 1 -p tcp -e 1000 -c 0 -i 4 -a 0 -x {2.0 3.0 2 ------- null}
h -t 0.045768 -s 0 -d 1 -p tcp -e 1000 -c 0 -i 4 -a 0 -x {2.0 3.0 -1 ------- null}
r -t 0.046568 -s 2 -d 0 -p tcp -e 1000 -c 0 -i 5 -a 0 -x {2.0 3.0 3 ------- null}
+ -t 0.046568 -s 0 -d 1 -p tcp -e 1000 -c 0 -i 5 -a 0 -x {2.0 3.0 3 ------- null}
r -t 0.047368 -s 2 -d 0 -p tcp -e 1000 -c 0 -i 6 -a 0 -x {2.0 3.0 4 ------- null}
+ -t 0.047368 -s 0 -d 1 -p tcp -e 1000 -c 0 -i 6 -a 0 -x {2.0 3.0 4 ------- null}
- -t 0.053768 -s 0 -d 1 -p tcp -e 1000 -c 0 -i 5 -a 0 -x {2.0 3.0 3 ------- null}
h -t 0.053768 -s 0 -d 1 -p tcp -e 1000 -c 0 -i 5 -a 0 -x {2.0 3.0 -1 ------- null}
r -t 0.057768 -s 0 -d 1 -p tcp -e 1000 -c 0 -i 4 -a 0 -x {2.0 3.0 2 ------- null}
+ -t 0.057768 -s 1 -d 3 -p tcp -e 1000 -c 0 -i 4 -a 0 -x {2.0 3.0 2 ------- null}
- -t 0.057768 -s 1 -d 3 -p tcp -e 1000 -c 0 -i 4 -a 0 -x {2.0 3.0 2 ------- null}
h -t 0.057768 -s 1 -d 3 -p tcp -e 1000 -c 0 -i 4 -a 0 -x {2.0 3.0 -1 ------- null}
r -t 0.059568 -s 1 -d 3 -p tcp -e 1000 -c 0 -i 4 -a 0 -x {2.0 3.0 2 ------- null}
+ -t 0.059568 -s 3 -d 1 -p ack -e 40 -c 0 -i 7 -a 0 -x {3.0 2.0 2 ------- null}
- -t 0.059568 -s 3 -d 1 -p ack -e 40 -c 0 -i 7 -a 0 -x {3.0 2.0 2 ------- null}
h -t 0.059568 -s 3 -d 1 -p ack -e 40 -c 0 -i 7 -a 0 -x {3.0 2.0 -1 ------- null}
r -t 0.0606 -s 3 -d 1 -p ack -e 40 -c 0 -i 7 -a 0 -x {3.0 2.0 2 ------- null}
+ -t 0.0606 -s 1 -d 0 -p ack -e 40 -c 0 -i 7 -a 0 -x {3.0 2.0 2 ------- null}
- -t 0.0606 -s 1 -d 0 -p ack -e 40 -c 0 -i 7 -a 0 -x {3.0 2.0 2 ------- null}
h -t 0.0606 -s 1 -d 0 -p ack -e 40 -c 0 -i 7 -a 0 -x {3.0 2.0 -1 ------- null}
- -t 0.061768 -s 0 -d 1 -p tcp -e 1000 -c 0 -i 6 -a 0 -x {2.0 3.0 4 ------- null}
h -t 0.061768 -s 0 -d 1 -p tcp -e 1000 -c 0 -i 6 -a 0 -x {2.0 3.0 -1 ------- null}
r -t 0.06492 -s 1 -d 0 -p ack -e 40 -c 0 -i 7 -a 0 -x {3.0 2.0 2 ------- null}
+ -t 0.06492 -s 0 -d 2 -p ack -e 40 -c 0 -i 7 -a 0 -x {3.0 2.0 2 ------- null}
- -t 0.06492 -s 0 -d 2 -p ack -e 40 -c 0 -i 7 -a 0 -x {3.0 2.0 2 ------- null}
h -t 0.06492 -s 0 -d 2 -p ack -e 40 -c 0 -i 7 -a 0 -x {3.0 2.0 -1 ------- null}
r -t 0.065768 -s 0 -d 1 -p tcp -e 1000 -c 0 -i 5 -a 0 -x {2.0 3.0 3 ------- null}
+ -t 0.065768 -s 1 -d 3 -p tcp -e 1000 -c 0 -i 5 -a 0 -x {2.0 3.0 3 ------- null}
- -t 0.065768 -s 1 -d 3 -p tcp -e 1000 -c 0 -i 5 -a 0 -x {2.0 3.0 3 ------- null}
h -t 0.065768 -s 1 -d 3 -p tcp -e 1000 -c 0 -i 5 -a 0 -x {2.0 3.0 -1 ------- null}
r -t 0.065952 -s 0 -d 2 -p ack -e 40 -c 0 -i 7 -a 0 -x {3.0 2.0 2 ------- null}
+ -t 0.065952 -s 2 -d 0 -p tcp -e 1000 -c 0 -i 8 -a 0 -x {2.0 3.0 5 ------- null}
- -t 0.065952 -s 2 -d 0 -p tcp -e 1000 -c 0 -i 8 -a 0 -x {2.0 3.0 5 ------- null}
h -t 0.065952 -s 2 -d 0 -p tcp -e 1000 -c 0 -i 8 -a 0 -x {2.0 3.0 -1 ------- null}
r -t 0.067568 -s 1 -d 3 -p tcp -e 1000 -c 0 -i 5 -a 0 -x {2.0 3.0 3 ------- null}
+ -t 0.067568 -s 3 -d 1 -p ack -e 40 -c 0 -i 9 -a 0 -x {3.0 2.0 3 ------- null}
- -t 0.067568 -s 3 -d 1 -p ack -e 40 -c 0 -i 9 -a 0 -x {3.0 2.0 3 ------- null}
h -t 0.067568 -s 3 -d 1 -p ack -e 40 -c 0 -i 9 -a 0 -x {3.0 2.0 -1 ------- null}
r -t 0.067752 -s 2 -d 0 -p tcp -e 1000 -c 0 -i 8 -a 0 -x {2.0 3.0 5 ------- null}
+ -t 0.067752 -s 0 -d 1 -p tcp -e 1000 -c 0 -i 8 -a 0 -x {2.0 3.0 5 ------- null}
r -t 0.0686 -s 3 -d 1 -p ack -e 40 -c 0 -i 9 -a 0 -x {3.0 2.0 3 ------- null}
+ -t 0.0686 -s 1 -d 0 -p ack -e 40 -c 0 -i 9 -a 0 -x {3.0 2.0 3 ------- null}
- -t 0.0686 -s 1 -d 0 -p ack -e 40 -c 0 -i 9 -a 0 -x {3.0 2.0 3 ------- null}
h -t 0.0686 -s 1 -d 0 -p ack -e 40 -c 0 -i 9 -a 0 -x {3.0 2.0 -1 ------- null}
- -t 0.069768 -s 0 -d 1 -p tcp -e 1000 -c 0 -i 8 -a 0 -x {2.0 3.0 5 ------- null}
h -t 0.069768 -s 0 -d 1 -p tcp -e 1000 -c 0 -i 8 -a 0 -x {2.0 3.0 -1 ------- null}
r -t 0.07292 -s 1 -d 0 -p ack -e 40 -c 0 -i 9 -a 0 -x {3.0 2.0 3 ------- null}
+ -t 0.07292 -s 0 -d 2 -p ack -e 40 -c 0 -i 9 -a 0 -x {3.0 2.0 3 ------- null}
- -t 0.07292 -s 0 -d 2 -p ack -e 40 -c 0 -i 9 -a 0 -x {3.0 2.0 3 ------- null}
h -t 0.07292 -s 0 -d 2 -p ack -e 40 -c 0 -i 9 -a 0 -x {3.0 2.0 -1 ------- null}
r -t 0.073768 -s 0 -d 1 -p tcp -e 1000 -c 0 -i 6 -a 0 -x {2.0 3.0 4 ------- null}
+ -t 0.073768 -s 1 -d 3 -p tcp -e 1000 -c 0 -i 6 -a 0 -x {2.0 3.0 4 ------- null}
- -t 0.073768 -s 1 -d 3 -p tcp -e 1000 -c 0 -i 6 -a 0 -x {2.0 3.0 4 ------- null}
h -t 0.073768 -s 1 -d 3 -p tcp -e 1000 -c 0 -i 6 -a 0 -x {2.0 3.0 -1 ------- null}
r -t 0.073952 -s 0 -d 2 -p ack -e 40 -c 0 -i 9 -a 0 -x {3.0 2.0 3 ------- null}
+ -t 0.073952 -s 2 -d 0 -p tcp -e 1000 -c 0 -i 10 -a 0 -x {2.0 3.0 6 ------- null}
- -t 0.073952 -s 2 -d 0 -p tcp -e 1000 -c 0 -i 10 -a 0 -x {2.0 3.0 6 ------- null}
h -t 0.073952 -s 2 -d 0 -p tcp -e 1000 -c 0 -i 10 -a 0 -x {2.0 3.0 -1 ------- null}
r -t 0.075568 -s 1 -d 3 -p tcp -e 1000 -c 0 -i 6 -a 0 -x {2.0 3.0 4 ------- null}
+ -t 0.075568 -s 3 -d 1 -p ack -e 40 -c 0 -i 11 -a 0 -x {3.0 2.0 4 ------- null}
- -t 0.075568 -s 3 -d 1 -p ack -e 40 -c 0 -i 11 -a 0 -x {3.0 2.0 4 ------- null}
h -t 0.075568 -s 3 -d 1 -p ack -e 40 -c 0 -i 11 -a 0 -x {3.0 2.0 -1 ------- null}
r -t 0.075752 -s 2 -d 0 -p tcp -e 1000 -c 0 -i 10 -a 0 -x {2.0 3.0 6 ------- null}
+ -t 0.075752 -s 0 -d 1 -p tcp -e 1000 -c 0 -i 10 -a 0 -x {2.0 3.0 6 ------- null}
r -t 0.0766 -s 3 -d 1 -p ack -e 40 -c 0 -i 11 -a 0 -x {3.0 2.0 4 ------- null}
+ -t 0.0766 -s 1 -d 0 -p ack -e 40 -c 0 -i 11 -a 0 -x {3.0 2.0 4 ------- null}
- -t 0.0766 -s 1 -d 0 -p ack -e 40 -c 0 -i 11 -a 0 -x {3.0 2.0 4 ------- null}
h -t 0.0766 -s 1 -d 0 -p ack -e 40 -c 0 -i 11 -a 0 -x {3.0 2.0 -1 ------- null}
- -t 0.077768 -s 0 -d 1 -p tcp -e 1000 -c 0 -i 10 -a 0 -x {2.0 3.0 6 ------- null}
h -t 0.077768 -s 0 -d 1 -p tcp -e 1000 -c 0 -i 10 -a 0 -x {2.0 3.0 -1 ------- null}
r -t 0.08092 -s 1 -d 0 -p ack -e 40 -c 0 -i 11 -a 0 -x {3.0 2.0 4 ------- null}
+ -t 0.08092 -s 0 -d 2 -p ack -e 40 -c 0 -i 11 -a 0 -x {3.0 2.0 4 ------- null}
- -t 0.08092 -s 0 -d 2 -p ack -e 40 -c 0 -i 11 -a 0 -x {3.0 2.0 4 ------- null}
h -t 0.08092 -s 0 -d 2 -p ack -e 40 -c 0 -i 11 -a 0 -x {3.0 2.0 -1 ------- null}
r -t 0.081768 -s 0 -d 1 -p tcp -e 1000 -c 0 -i 8 -a 0 -x {2.0 3.0 5 ------- null}
+ -t 0.081768 -s 1 -d 3 -p tcp -e 1000 -c 0 -i 8 -a 0 -x {2.0 3.0 5 ------- null}
- -t 0.081768 -s 1 -d 3 -p tcp -e 1000 -c 0 -i 8 -a 0 -x {2.0 3.0 5 ------- null}
h -t 0.081768 -s 1 -d 3 -p tcp -e 1000 -c 0 -i 8 -a 0 -x {2.0 3.0 -1 ------- null}
r -t 0.081952 -s 0 -d 2 -p ack -e 40 -c 0 -i 11 -a 0 -x {3.0 2.0 4 ------- null}
+ -t 0.081952 -s 2 -d 0 -p tcp -e 1000 -c 0 -i 12 -a 0 -x {2.0 3.0 7 ------- null}
- -t 0.081952 -s 2 -d 0 -p tcp -e 1000 -c 0 -i 12 -a 0 -x {2.0 3.0 7 ------- null}
h -t 0.081952 -s 2 -d 0 -p tcp -e 1000 -c 0 -i 12 -a 0 -x {2.0 3.0 -1 ------- null}
r -t 0.083568 -s 1 -d 3 -p tcp -e 1000 -c 0 -i 8 -a 0 -x {2.0 3.0 5 ------- null}
+ -t 0.083568 -s 3 -d 1 -p ack -e 40 -c 0 -i 13 -a 0 -x {3.0 2.0 5 ------- null}
- -t 0.083568 -s 3 -d 1 -p ack -e 40 -c 0 -i 13 -a 0 -x {3.0 2.0 5 ------- null}
h -t 0.083568 -s 3 -d 1 -p ack -e 40 -c 0 -i 13 -a 0 -x {3.0 2.0 -1 ------- null}
r -t 0.083752 -s 2 -d 0 -p tcp -e 1000 -c 0 -i 12 -a 0 -x {2.0 3.0 7 ------- null}
+ -t 0.083752 -s 0 -d 1 -p tcp -e 1000 -c 0 -i 12 -a 0 -x {2.0 3.0 7 ------- null}
r -t 0.0846 -s 3 -d 1 -p ack -e 40 -c 0 -i 13 -a 0 -x {3.0 2.0 5 ------- null}
+ -t 0.0846 -s 1 -d 0 -p ack -e 40 -c 0 -i 13 -a 0 -x {3.0 2.0 5 ------- null}
- -t 0.0846 -s 1 -d 0 -p ack -e 40 -c 0 -i 13 -a 0 -x {3.0 2.0 5 ------- null}
h -t 0.0846 -s 1 -d 0 -p ack -e 40 -c 0 -i 13 -a 0 -x {3.0 2.0 -1 ------- null}
- -t 0.085768 -s 0 -d 1 -p tcp -e 1000 -c 0 -i 12 -a 0 -x {2.0 3.0 7 ------- null}
h -t 0.085768 -s 0 -d 1 -p tcp -e 1000 -c 0 -i 12 -a 0 -x {2.0 3.0 -1 ------- null}
r -t 0.08892 -s 1 -d 0 -p ack -e 40 -c 0 -i 13 -a 0 -x {3.0 2.0 5 ------- null}
+ -t 0.08892 -s 0 -d 2 -p ack -e 40 -c 0 -i 13 -a 0 -x {3.0 2.0 5 ------- null}
- -t 0.08892 -s 0 -d 2 -p ack -e 40 -c 0 -i 13 -a 0 -x {3.0 2.0 5 ------- null}
h -t 0.08892 -s 0 -d 2 -p ack -e 40 -c 0 -i 13 -a 0 -x {3.0 2.0 -1 ------- null}
r -t 0.089768 -s 0 -d 1 -p tcp -e 1000 -c 0 -i 10 -a 0 -x {2.0 3.0 6 ------- null}
+ -t 0.089768 -s 1 -d 3 -p tcp -e 1000 -c 0 -i 10 -a 0 -x {2.0 3.0 6 ------- null}
- -t 0.089768 -s 1 -d 3 -p tcp -e 1000 -c 0 -i 10 -a 0 -x {2.0 3.0 6 ------- null}
h -t 0.089768 -s 1 -d 3 -p tcp -e 1000 -c 0 -i 10 -a 0 -x {2.0 3.0 -1 ------- null}
r -t 0.089952 -s 0 -d 2 -p ack -e 40 -c 0 -i 13 -a 0 -x {3.0 2.0 5 ------- null}
+ -t 0.089952 -s 2 -d 0 -p tcp -e 1000 -c 0 -i 14 -a 0 -x {2.0 3.0 8 ------- null}
- -t 0.089952 -s 2 -d 0 -p tcp -e 1000 -c 0 -i 14 -a 0 -x {2.0 3.0 8 ------- null}
h -t 0.089952 -s 2 -d 0 -p tcp -e 1000 -c 0 -i 14 -a 0 -x {2.0 3.0 -1 ------- null}
+ -t 0.089952 -s 2 -d 0 -p tcp -e 1000 -c 0 -i 15 -a 0 -x {2.0 3.0 9 ------- null}
- -t 0.090752 -s 2 -d 0 -p tcp -e 1000 -c 0 -i 15 -a 0 -x {2.0 3.0 9 ------- null}
h -t 0.090752 -s 2 -d 0 -p tcp -e 1000 -c 0 -i 15 -a 0 -x {2.0 3.0 -1 ------- null}
r -t 0.091568 -s 1 -d 3 -p tcp -e 1000 -c 0 -i 10 -a 0 -x {2.0 3.0 6 ------- null}
+ -t 0.091568 -s 3 -d 1 -p ack -e 40 -c 0 -i 16 -a 0 -x {3.0 2.0 6 ------- null}
- -t 0.091568 -s 3 -d 1 -p ack -e 40 -c 0 -i 16 -a 0 -x {3.0 2.0 6 ------- null}
h -t 0.091568 -s 3 -d 1 -p ack -e 40 -c 0 -i 16 -a 0 -x {3.0 2.0 -1 ------- null}
r -t 0.091752 -s 2 -d 0 -p tcp -e 1000 -c 0 -i 14 -a 0 -x {2.0 3.0 8 ------- null}
+ -t 0.091752 -s 0 -d 1 -p tcp -e 1000 -c 0 -i 14 -a 0 -x {2.0 3.0 8 ------- null}
r -t 0.092552 -s 2 -d 0 -p tcp -e 1000 -c 0 -i 15 -a 0 -x {2.0 3.0 9 ------- null}
+ -t 0.092552 -s 0 -d 1 -p tcp -e 1000 -c 0 -i 15 -a 0 -x {2.0 3.0 9 ------- null}
r -t 0.0926 -s 3 -d 1 -p ack -e 40 -c 0 -i 16 -a 0 -x {3.0 2.0 6 ------- null}
+ -t 0.0926 -s 1 -d 0 -p ack -e 40 -c 0 -i 16 -a 0 -x {3.0 2.0 6 ------- null}
- -t 0.0926 -s 1 -d 0 -p ack -e 40 -c 0 -i 16 -a 0 -x {3.0 2.0 6 ------- null}
h -t 0.0926 -s 1 -d 0 -p ack -e 40 -c 0 -i 16 -a 0 -x {3.0 2.0 -1 ------- null}
- -t 0.093768 -s 0 -d 1 -p tcp -e 1000 -c 0 -i 14 -a 0 -x {2.0 3.0 8 ------- null}
h -t 0.093768 -s 0 -d 1 -p tcp -e 1000 -c 0 -i 14 -a 0 -x {2.0 3.0 -1 ------- null}
r -t 0.09692 -s 1 -d 0 -p ack -e 40 -c 0 -i 16 -a 0 -x {3.0 2.0 6 ------- null}
+ -t 0.09692 -s 0 -d 2 -p ack -e 40 -c 0 -i 16 -a 0 -x {3.0 2.0 6 ------- null}
- -t 0.09692 -s 0 -d 2 -p ack -e 40 -c 0 -i 16 -a 0 -x {3.0 2.0 6 ------- null}
h -t 0.09692 -s 0 -d 2 -p ack -e 40 -c 0 -i 16 -a 0 -x {3.0 2.0 -1 ------- null}
r -t 0.097768 -s 0 -d 1 -p tcp -e 1000 -c 0 -i 12 -a 0 -x {2.0 3.0 7 ------- null}
+ -t 0.097768 -s 1 -d 3 -p tcp -e 1000 -c 0 -i 12 -a 0 -x {2.0 3.0 7 ------- null}
- -t 0.097768 -s 1 -d 3 -p tcp -e 1000 -c 0 -i 12 -a 0 -x {2.0 3.0 7 ------- null}
h -t 0.097768 -s 1 -d 3 -p tcp -e 1000 -c 0 -i 12 -a 0 -x {2.0 3.0 -1 ------- null}
r -t 0.097952 -s 0 -d 2 -p ack -e 40 -c 0 -i 16 -a 0 -x {3.0 2.0 6 ------- null}
+ -t 0.097952 -s 2 -d 0 -p tcp -e 1000 -c 0 -i 17 -a 0 -x {2.0 3.0 10 ------- null}
- -t 0.097952 -s 2 -d 0 -p tcp -e 1000 -c 0 -i 17 -a 0 -x {2.0 3.0 10 ------- null}
h -t 0.097952 -s 2 -d 0 -p tcp -e 1000 -c 0 -i 17 -a 0 -x {2.0 3.0 -1 ------- null}
+ -t 0.097952 -s 2 -d 0 -p tcp -e 1000 -c 0 -i 18 -a 0 -x {2.0 3.0 11 ------- null}
- -t 0.098752 -s 2 -d 0 -p tcp -e 1000 -c 0 -i 18 -a 0 -x {2.0 3.0 11 ------- null}
h -t 0.098752 -s 2 -d 0 -p tcp -e 1000 -c 0 -i 18 -a 0 -x {2.0 3.0 -1 ------- null}
r -t 0.099568 -s 1 -d 3 -p tcp -e 1000 -c 0 -i 12 -a 0 -x {2.0 3.0 7 ------- null}
+ -t 0.099568 -s 3 -d 1 -p ack -e 40 -c 0 -i 19 -a 0 -x {3.0 2.0 7 ------- null}
- -t 0.099568 -s 3 -d 1 -p ack -e 40 -c 0 -i 19 -a 0 -x {3.0 2.0 7 ------- null}
h -t 0.099568 -s 3 -d 1 -p ack -e 40 -c 0 -i 19 -a 0 -x {3.0 2.0 -1 ------- null}
r -t 0.099752 -s 2 -d 0 -p tcp -e 1000 -c 0 -i 17 -a 0 -x {2.0 3.0 10 ------- null}
+ -t 0.099752 -s 0 -d 1 -p tcp -e 1000 -c 0 -i 17 -a 0 -x {2.0 3.0 10 ------- null}
r -t 0.100552 -s 2 -d 0 -p tcp -e 1000 -c 0 -i 18 -a 0 -x {2.0 3.0 11 ------- null}
+ -t 0.100552 -s 0 -d 1 -p tcp -e 1000 -c 0 -i 18 -a 0 -x {2.0 3.0 11 ------- null}
r -t 0.1006 -s 3 -d 1 -p ack -e 40 -c 0 -i 19 -a 0 -x {3.0 2.0 7 ------- null}
+ -t 0.1006 -s 1 -d 0 -p ack -e 40 -c 0 -i 19 -a 0 -x {3.0 2.0 7 ------- null}
- -t 0.1006 -s 1 -d 0 -p ack -e 40 -c 0 -i 19 -a 0 -x {3.0 2.0 7 ------- null}
h -t 0.1006 -s 1 -d 0 -p ack -e 40 -c 0 -i 19 -a 0 -x {3.0 2.0 -1 ------- null}
- -t 0.101768 -s 0 -d 1 -p tcp -e 1000 -c 0 -i 15 -a 0 -x {2.0 3.0 9 ------- null}
h -t 0.101768 -s 0 -d 1 -p tcp -e 1000 -c 0 -i 15 -a 0 -x {2.0 3.0 -1 ------- null}
r -t 0.10492 -s 1 -d 0 -p ack -e 40 -c 0 -i 19 -a 0 -x {3.0 2.0 7 ------- null}
+ -t 0.10492 -s 0 -d 2 -p ack -e 40 -c 0 -i 19 -a 0 -x {3.0 2.0 7 ------- null}
- -t 0.10492 -s 0 -d 2 -p ack -e 40 -c 0 -i 19 -a 0 -x {3.0 2.0 7 ------- null}
h -t 0.10492 -s 0 -d 2 -p ack -e 40 -c 0 -i 19 -a 0 -x {3.0 2.0 -1 ------- null}
r -t 0.105768 -s 0 -d 1 -p tcp -e 1000 -c 0 -i 14 -a 0 -x {2.0 3.0 8 ------- null}
+ -t 0.105768 -s 1 -d 3 -p tcp -e 1000 -c 0 -i 14 -a 0 -x {2.0 3.0 8 ------- null}
- -t 0.105768 -s 1 -d 3 -p tcp -e 1000 -c 0 -i 14 -a 0 -x {2.0 3.0 8 ------- null}
h -t 0.105768 -s 1 -d 3 -p tcp -e 1000 -c 0 -i 14 -a 0 -x {2.0 3.0 -1 ------- null}
r -t 0.105952 -s 0 -d 2 -p ack -e 40 -c 0 -i 19 -a 0 -x {3.0 2.0 7 ------- null}
+ -t 0.105952 -s 2 -d 0 -p tcp -e 1000 -c 0 -i 20 -a 0 -x {2.0 3.0 12 ------- null}
- -t 0.105952 -s 2 -d 0 -p tcp -e 1000 -c 0 -i 20 -a 0 -x {2.0 3.0 12 ------- null}
h -t 0.105952 -s 2 -d 0 -p tcp -e 1000 -c 0 -i 20 -a 0 -x {2.0 3.0 -1 ------- null}
+ -t 0.105952 -s 2 -d 0 -p tcp -e 1000 -c 0 -i 21 -a 0 -x {2.0 3.0 13 ------- null}
- -t 0.106752 -s 2 -d 0 -p tcp -e 1000 -c 0 -i 21 -a 0 -x {2.0 3.0 13 ------- null}
h -t 0.106752 -s 2 -d 0 -p tcp -e 1000 -c 0 -i 21 -a 0 -x {2.0 3.0 -1 ------- null}
r -t 0.107568 -s 1 -d 3 -p tcp -e 1000 -c 0 -i 14 -a 0 -x {2.0 3.0 8 ------- null}
+ -t 0.107568 -s 3 -d 1 -p ack -e 40 -c 0 -i 22 -a 0 -x {3.0 2.0 8 ------- null}
- -t 0.107568 -s 3 -d 1 -p ack -e 40 -c 0 -i 22 -a 0 -x {3.0 2.0 8 ------- null}
h -t 0.107568 -s 3 -d 1 -p ack -e 40 -c 0 -i 22 -a 0 -x {3.0 2.0 -1 ------- null}
r -t 0.107752 -s 2 -d 0 -p tcp -e 1000 -c 0 -i 20 -a 0 -x {2.0 3.0 12 ------- null}
+ -t 0.107752 -s 0 -d 1 -p tcp -e 1000 -c 0 -i 20 -a 0 -x {2.0 3.0 12 ------- null}
r -t 0.108552 -s 2 -d 0 -p tcp -e 1000 -c 0 -i 21 -a 0 -x {2.0 3.0 13 ------- null}
+ -t 0.108552 -s 0 -d 1 -p tcp -e 1000 -c 0 -i 21 -a 0 -x {2.0 3.0 13 ------- null}
r -t 0.1086 -s 3 -d 1 -p ack -e 40 -c 0 -i 22 -a 0 -x {3.0 2.0 8 ------- null}
+ -t 0.1086 -s 1 -d 0 -p ack -e 40 -c 0 -i 22 -a 0 -x {3.0 2.0 8 ------- null}
- -t 0.1086 -s 1 -d 0 -p ack -e 40 -c 0 -i 22 -a 0 -x {3.0 2.0 8 ------- null}
h -t 0.1086 -s 1 -d 0 -p ack -e 40 -c 0 -i 22 -a 0 -x {3.0 2.0 -1 ------- null}
- -t 0.109768 -s 0 -d 1 -p tcp -e 1000 -c 0 -i 17 -a 0 -x {2.0 3.0 10 ------- null}
h -t 0.109768 -s 0 -d 1 -p tcp -e 1000 -c 0 -i 17 -a 0 -x {2.0 3.0 -1 ------- null}
r -t 0.11292 -s 1 -d 0 -p ack -e 40 -c 0 -i 22 -a 0 -x {3.0 2.0 8 ------- null}
+ -t 0.11292 -s 0 -d 2 -p ack -e 40 -c 0 -i 22 -a 0 -x {3.0 2.0 8 ------- null}
- -t 0.11292 -s 0 -d 2 -p ack -e 40 -c 0 -i 22 -a 0 -x {3.0 2.0 8 ------- null}
h -t 0.11292 -s 0 -d 2 -p ack -e 40 -c 0 -i 22 -a 0 -x {3.0 2.0 -1 ------- null}
r -t 0.113768 -s 0 -d 1 -p tcp -e 1000 -c 0 -i 15 -a 0 -x {2.0 3.0 9 ------- null}
+ -t 0.113768 -s 1 -d 3 -p tcp -e 1000 -c 0 -i 15 -a 0 -x {2.0 3.0 9 ------- null}
- -t 0.113768 -s 1 -d 3 -p tcp -e 1000 -c 0 -i 15 -a 0 -x {2.0 3.0 9 ------- null}
h -t 0.113768 -s 1 -d 3 -p tcp -e 1000 -c 0 -i 15 -a 0 -x {2.0 3.0 -1 ------- null}
r -t 0.113952 -s 0 -d 2 -p ack -e 40 -c 0 -i 22 -a 0 -x {3.0 2.0 8 ------- null}
+ -t 0.113952 -s 2 -d 0 -p tcp -e 1000 -c 0 -i 23 -a 0 -x {2.0 3.0 14 ------- null}
- -t 0.113952 -s 2 -d 0 -p tcp -e 1000 -c 0 -i 23 -a 0 -x {2.0 3.0 14 ------- null}
h -t 0.113952 -s 2 -d 0 -p tcp -e 1000 -c 0 -i 23 -a 0 -x {2.0 3.0 -1 ------- null}
r -t 0.115568 -s 1 -d 3 -p tcp -e 1000 -c 0 -i 15 -a 0 -x {2.0 3.0 9 ------- null}
+ -t 0.115568 -s 3 -d 1 -p ack -e 40 -c 0 -i 24 -a 0 -x {3.0 2.0 9 ------- null}
- -t 0.115568 -s 3 -d 1 -p ack -e 40 -c 0 -i 24 -a 0 -x {3.0 2.0 9 ------- null}
h -t 0.115568 -s 3 -d 1 -p ack -e 40 -c 0 -i 24 -a 0 -x {3.0 2.0 -1 ------- null}
r -t 0.115752 -s 2 -d 0 -p tcp -e 1000 -c 0 -i 23 -a 0 -x {2.0 3.0 14 ------- null}
+ -t 0.115752 -s 0 -d 1 -p tcp -e 1000 -c 0 -i 23 -a 0 -x {2.0 3.0 14 ------- null}
r -t 0.1166 -s 3 -d 1 -p ack -e 40 -c 0 -i 24 -a 0 -x {3.0 2.0 9 ------- null}
+ -t 0.1166 -s 1 -d 0 -p ack -e 40 -c 0 -i 24 -a 0 -x {3.0 2.0 9 ------- null}
- -t 0.1166 -s 1 -d 0 -p ack -e 40 -c 0 -i 24 -a 0 -x {3.0 2.0 9 ------- null}
h -t 0.1166 -s 1 -d 0 -p ack -e 40 -c 0 -i 24 -a 0 -x {3.0 2.0 -1 ------- null}
- -t 0.117768 -s 0 -d 1 -p tcp -e 1000 -c 0 -i 18 -a 0 -x {2.0 3.0 11 ------- null}
h -t 0.117768 -s 0 -d 1 -p tcp -e 1000 -c 0 -i 18 -a 0 -x {2.0 3.0 -1 ------- null}
r -t 0.12092 -s 1 -d 0 -p ack -e 40 -c 0 -i 24 -a 0 -x {3.0 2.0 9 ------- null}
+ -t 0.12092 -s 0 -d 2 -p ack -e 40 -c 0 -i 24 -a 0 -x {3.0 2.0 9 ------- null}
- -t 0.12092 -s 0 -d 2 -p ack -e 40 -c 0 -i 24 -a 0 -x {3.0 2.0 9 ------- null}
h -t 0.12092 -s 0 -d 2 -p ack -e 40 -c 0 -i 24 -a 0 -x {3.0 2.0 -1 ------- null}
r -t 0.121768 -s 0 -d 1 -p tcp -e 1000 -c 0 -i 17 -a 0 -x {2.0 3.0 10 ------- null}
+ -t 0.121768 -s 1 -d 3 -p tcp -e 1000 -c 0 -i 17 -a 0 -x {2.0 3.0 10 ------- null}
- -t 0.121768 -s 1 -d 3 -p tcp -e 1000 -c 0 -i 17 -a 0 -x {2.0 3.0 10 ------- null}
h -t 0.121768 -s 1 -d 3 -p tcp -e 1000 -c 0 -i 17 -a 0 -x {2.0 3.0 -1 ------- null}
r -t 0.121952 -s 0 -d 2 -p ack -e 40 -c 0 -i 24 -a 0 -x {3.0 2.0 9 ------- null}
+ -t 0.121952 -s 2 -d 0 -p tcp -e 1000 -c 0 -i 25 -a 0 -x {2.0 3.0 15 ------- null}
- -t 0.121952 -s 2 -d 0 -p tcp -e 1000 -c 0 -i 25 -a 0 -x {2.0 3.0 15 ------- null}
h -t 0.121952 -s 2 -d 0 -p tcp -e 1000 -c 0 -i 25 -a 0 -x {2.0 3.0 -1 ------- null}
r -t 0.123568 -s 1 -d 3 -p tcp -e 1000 -c 0 -i 17 -a 0 -x {2.0 3.0 10 ------- null}
+ -t 0.123568 -s 3 -d 1 -p ack -e 40 -c 0 -i 26 -a 0 -x {3.0 2.0 10 ------- null}
- -t 0.123568 -s 3 -d 1 -p ack -e 40 -c 0 -i 26 -a 0 -x {3.0 2.0 10 ------- null}
h -t 0.123568 -s 3 -d 1 -p ack -e 40 -c 0 -i 26 -a 0 -x {3.0 2.0 -1 ------- null}
r -t 0.123752 -s 2 -d 0 -p tcp -e 1000 -c 0 -i 25 -a 0 -x {2.0 3.0 15 ------- null}
+ -t 0.123752 -s 0 -d 1 -p tcp -e 1000 -c 0 -i 25 -a 0 -x {2.0 3.0 15 ------- null}
r -t 0.1246 -s 3 -d 1 -p ack -e 40 -c 0 -i 26 -a 0 -x {3.0 2.0 10 ------- null}
+ -t 0.1246 -s 1 -d 0 -p ack -e 40 -c 0 -i 26 -a 0 -x {3.0 2.0 10 ------- null}
- -t 0.1246 -s 1 -d 0 -p ack -e 40 -c 0 -i 26 -a 0 -x {3.0 2.0 10 ------- null}
h -t 0.1246 -s 1 -d 0 -p ack -e 40 -c 0 -i 26 -a 0 -x {3.0 2.0 -1 ------- null}
- -t 0.125768 -s 0 -d 1 -p tcp -e 1000 -c 0 -i 20 -a 0 -x {2.0 3.0 12 ------- null}
h -t 0.125768 -s 0 -d 1 -p tcp -e 1000 -c 0 -i 20 -a 0 -x {2.0 3.0 -1 ------- null}
r -t 0.12892 -s 1 -d 0 -p ack -e 40 -c 0 -i 26 -a 0 -x {3.0 2.0 10 ------- null}
+ -t 0.12892 -s 0 -d 2 -p ack -e 40 -c 0 -i 26 -a 0 -x {3.0 2.0 10 ------- null}
- -t 0.12892 -s 0 -d 2 -p ack -e 40 -c 0 -i 26 -a 0 -x {3.0 2.0 10 ------- null}
h -t 0.12892 -s 0 -d 2 -p ack -e 40 -c 0 -i 26 -a 0 -x {3.0 2.0 -1 ------- null}
r -t 0.129768 -s 0 -d 1 -p tcp -e 1000 -c 0 -i 18 -a 0 -x {2.0 3.0 11 ------- null}
+ -t 0.129768 -s 1 -d 3 -p tcp -e 1000 -c 0 -i 18 -a 0 -x {2.0 3.0 11 ------- null}
- -t 0.129768 -s 1 -d 3 -p tcp -e 1000 -c 0 -i 18 -a 0 -x {2.0 3.0 11 ------- null}
h -t 0.129768 -s 1 -d 3 -p tcp -e 1000 -c 0 -i 18 -a 0 -x {2.0 3.0 -1 ------- null}
r -t 0.129952 -s 0 -d 2 -p ack -e 40 -c 0 -i 26 -a 0 -x {3.0 2.0 10 ------- null}
+ -t 0.129952 -s 2 -d 0 -p tcp -e 1000 -c 0 -i 27 -a 0 -x {2.0 3.0 16 ------- null}
- -t 0.129952 -s 2 -d 0 -p tcp -e 1000 -c 0 -i 27 -a 0 -x {2.0 3.0 16 ------- null}
h -t 0.129952 -s 2 -d 0 -p tcp -e 1000 -c 0 -i 27 -a 0 -x {2.0 3.0 -1 ------- null}
r -t 0.131568 -s 1 -d 3 -p tcp -e 1000 -c 0 -i 18 -a 0 -x {2.0 3.0 11 ------- null}
+ -t 0.131568 -s 3 -d 1 -p ack -e 40 -c 0 -i 28 -a 0 -x {3.0 2.0 11 ------- null}
- -t 0.131568 -s 3 -d 1 -p ack -e 40 -c 0 -i 28 -a 0 -x {3.0 2.0 11 ------- null}
h -t 0.131568 -s 3 -d 1 -p ack -e 40 -c 0 -i 28 -a 0 -x {3.0 2.0 -1 ------- null}
r -t 0.131752 -s 2 -d 0 -p tcp -e 1000 -c 0 -i 27 -a 0 -x {2.0 3.0 16 ------- null}
+ -t 0.131752 -s 0 -d 1 -p tcp -e 1000 -c 0 -i 27 -a 0 -x {2.0 3.0 16 ------- null}
r -t 0.1326 -s 3 -d 1 -p ack -e 40 -c 0 -i 28 -a 0 -x {3.0 2.0 11 ------- null}
+ -t 0.1326 -s 1 -d 0 -p ack -e 40 -c 0 -i 28 -a 0 -x {3.0 2.0 11 ------- null}
- -t 0.1326 -s 1 -d 0 -p ack -e 40 -c 0 -i 28 -a 0 -x {3.0 2.0 11 ------- null}
h -t 0.1326 -s 1 -d 0 -p ack -e 40 -c 0 -i 28 -a 0 -x {3.0 2.0 -1 ------- null}
- -t 0.133768 -s 0 -d 1 -p tcp -e 1000 -c 0 -i 21 -a 0 -x {2.0 3.0 13 ------- null}
h -t 0.133768 -s 0 -d 1 -p tcp -e 1000 -c 0 -i 21 -a 0 -x {2.0 3.0 -1 ------- null}
r -t 0.13692 -s 1 -d 0 -p ack -e 40 -c 0 -i 28 -a 0 -x {3.0 2.0 11 ------- null}
+ -t 0.13692 -s 0 -d 2 -p ack -e 40 -c 0 -i 28 -a 0 -x {3.0 2.0 11 ------- null}
- -t 0.13692 -s 0 -d 2 -p ack -e 40 -c 0 -i 28 -a 0 -x {3.0 2.0 11 ------- null}
h -t 0.13692 -s 0 -d 2 -p ack -e 40 -c 0 -i 28 -a 0 -x {3.0 2.0 -1 ------- null}
r -t 0.137768 -s 0 -d 1 -p tcp -e 1000 -c 0 -i 20 -a 0 -x {2.0 3.0 12 ------- null}
+ -t 0.137768 -s 1 -d 3 -p tcp -e 1000 -c 0 -i 20 -a 0 -x {2.0 3.0 12 ------- null}
- -t 0.137768 -s 1 -d 3 -p tcp -e 1000 -c 0 -i 20 -a 0 -x {2.0 3.0 12 ------- null}
h -t 0.137768 -s 1 -d 3 -p tcp -e 1000 -c 0 -i 20 -a 0 -x {2.0 3.0 -1 ------- null}
r -t 0.137952 -s 0 -d 2 -p ack -e 40 -c 0 -i 28 -a 0 -x {3.0 2.0 11 ------- null}
+ -t 0.137952 -s 2 -d 0 -p tcp -e 1000 -c 0 -i 29 -a 0 -x {2.0 3.0 17 ------- null}
- -t 0.137952 -s 2 -d 0 -p tcp -e 1000 -c 0 -i 29 -a 0 -x {2.0 3.0 17 ------- null}
h -t 0.137952 -s 2 -d 0 -p tcp -e 1000 -c 0 -i 29 -a 0 -x {2.0 3.0 -1 ------- null}
r -t 0.139568 -s 1 -d 3 -p tcp -e 1000 -c 0 -i 20 -a 0 -x {2.0 3.0 12 ------- null}
+ -t 0.139568 -s 3 -d 1 -p ack -e 40 -c 0 -i 30 -a 0 -x {3.0 2.0 12 ------- null}
- -t 0.139568 -s 3 -d 1 -p ack -e 40 -c 0 -i 30 -a 0 -x {3.0 2.0 12 ------- null}
h -t 0.139568 -s 3 -d 1 -p ack -e 40 -c 0 -i 30 -a 0 -x {3.0 2.0 -1 ------- null}
r -t 0.139752 -s 2 -d 0 -p tcp -e 1000 -c 0 -i 29 -a 0 -x {2.0 3.0 17 ------- null}
+ -t 0.139752 -s 0 -d 1 -p tcp -e 1000 -c 0 -i 29 -a 0 -x {2.0 3.0 17 ------- null}
r -t 0.1406 -s 3 -d 1 -p ack -e 40 -c 0 -i 30 -a 0 -x {3.0 2.0 12 ------- null}
+ -t 0.1406 -s 1 -d 0 -p ack -e 40 -c 0 -i 30 -a 0 -x {3.0 2.0 12 ------- null}
- -t 0.1406 -s 1 -d 0 -p ack -e 40 -c 0 -i 30 -a 0 -x {3.0 2.0 12 ------- null}
h -t 0.1406 -s 1 -d 0 -p ack -e 40 -c 0 -i 30 -a 0 -x {3.0 2.0 -1 ------- null}
- -t 0.141768 -s 0 -d 1 -p tcp -e 1000 -c 0 -i 23 -a 0 -x {2.0 3.0 14 ------- null}
h -t 0.141768 -s 0 -d 1 -p tcp -e 1000 -c 0 -i 23 -a 0 -x {2.0 3.0 -1 ------- null}
r -t 0.14492 -s 1 -d 0 -p ack -e 40 -c 0 -i 30 -a 0 -x {3.0 2.0 12 ------- null}
+ -t 0.14492 -s 0 -d 2 -p ack -e 40 -c 0 -i 30 -a 0 -x {3.0 2.0 12 ------- null}
- -t 0.14492 -s 0 -d 2 -p ack -e 40 -c 0 -i 30 -a 0 -x {3.0 2.0 12 ------- null}
h -t 0.14492 -s 0 -d 2 -p ack -e 40 -c 0 -i 30 -a 0 -x {3.0 2.0 -1 ------- null}
r -t 0.145768 -s 0 -d 1 -p tcp -e 1000 -c 0 -i 21 -a 0 -x {2.0 3.0 13 ------- null}
+ -t 0.145768 -s 1 -d 3 -p tcp -e 1000 -c 0 -i 21 -a 0 -x {2.0 3.0 13 ------- null}
- -t 0.145768 -s 1 -d 3 -p tcp -e 1000 -c 0 -i 21 -a 0 -x {2.0 3.0 13 ------- null}
h -t 0.145768 -s 1 -d 3 -p tcp -e 1000 -c 0 -i 21 -a 0 -x {2.0 3.0 -1 ------- null}
r -t 0.145952 -s 0 -d 2 -p ack -e 40 -c 0 -i 30 -a 0 -x {3.0 2.0 12 ------- null}
+ -t 0.145952 -s 2 -d 0 -p tcp -e 1000 -c 0 -i 31 -a 0 -x {2.0 3.0 18 ------- null}
- -t 0.145952 -s 2 -d 0 -p tcp -e 1000 -c 0 -i 31 -a 0 -x {2.0 3.0 18 ------- null}
h -t 0.145952 -s 2 -d 0 -p tcp -e 1000 -c 0 -i 31 -a 0 -x {2.0 3.0 -1 ------- null}
r -t 0.147568 -s 1 -d 3 -p tcp -e 1000 -c 0 -i 21 -a 0 -x {2.0 3.0 13 ------- null}
+ -t 0.147568 -s 3 -d 1 -p ack -e 40 -c 0 -i 32 -a 0 -x {3.0 2.0 13 ------- null}
- -t 0.147568 -s 3 -d 1 -p ack -e 40 -c 0 -i 32 -a 0 -x {3.0 2.0 13 ------- null}
h -t 0.147568 -s 3 -d 1 -p ack -e 40 -c 0 -i 32 -a 0 -x {3.0 2.0 -1 ------- null}
r -t 0.147752 -s 2 -d 0 -p tcp -e 1000 -c 0 -i 31 -a 0 -x {2.0 3.0 18 ------- null}
+ -t 0.147752 -s 0 -d 1 -p tcp -e 1000 -c 0 -i 31 -a 0 -x {2.0 3.0 18 ------- null}
r -t 0.1486 -s 3 -d 1 -p ack -e 40 -c 0 -i 32 -a 0 -x {3.0 2.0 13 ------- null}
+ -t 0.1486 -s 1 -d 0 -p ack -e 40 -c 0 -i 32 -a 0 -x {3.0 2.0 13 ------- null}
- -t 0.1486 -s 1 -d 0 -p ack -e 40 -c 0 -i 32 -a 0 -x {3.0 2.0 13 ------- null}
h -t 0.1486 -s 1 -d 0 -p ack -e 40 -c 0 -i 32 -a 0 -x {3.0 2.0 -1 ------- null}
- -t 0.149768 -s 0 -d 1 -p tcp -e 1000 -c 0 -i 25 -a 0 -x {2.0 3.0 15 ------- null}
h -t 0.149768 -s 0 -d 1 -p tcp -e 1000 -c 0 -i 25 -a 0 -x {2.0 3.0 -1 ------- null}
r -t 0.15292 -s 1 -d 0 -p ack -e 40 -c 0 -i 32 -a 0 -x {3.0 2.0 13 ------- null}