+ 0 2 0 tcp 1000 ------- 0 2.0 3.0 0 0
- 0 2 0 tcp 1000 ------- 0 2.0 3.0 0 0
r 0.0018 2 0 tcp 1000 ------- 0 2.0 3.0 0 0
+ 0.0018 0 1 tcp 1000 ------- 0 2.0 3.0 0 0
- 0.0018 0 1 tcp 1000 ------- 0 2.0 3.0 0 0
r 0.0138 0 1 tcp 1000 ------- 0 2.0 3.0 0 0
+ 0.0138 1 3 tcp 1000 ------- 0 2.0 3.0 0 0
- 0.0138 1 3 tcp 1000 ------- 0 2.0 3.0 0 0
r 0.0156 1 3 tcp 1000 ------- 0 2.0 3.0 0 0
+ 0.0156 3 1 ack 40 ------- 0 3.0 2.0 0 1
- 0.0156 3 1 ack 40 ------- 0 3.0 2.0 0 1
r 0.016632 3 1 ack 40 ------- 0 3.0 2.0 0 1
+ 0.016632 1 0 ack 40 ------- 0 3.0 2.0 0 1
- 0.016632 1 0 ack 40 ------- 0 3.0 2.0 0 1
r 0.020952 1 0 ack 40 ------- 0 3.0 2.0 0 1
+ 0.020952 0 2 ack 40 ------- 0 3.0 2.0 0 1
- 0.020952 0 2 ack 40 ------- 0 3.0 2.0 0 1
r 0.021984 0 2 ack 40 ------- 0 3.0 2.0 0 1
+ 0.021984 2 0 tcp 1000 ------- 0 2.0 3.0 1 2
- 0.021984 2 0 tcp 1000 ------- 0 2.0 3.0 1 2
r 0.023784 2 0 tcp 1000 ------- 0 2.0 3.0 1 2
+ 0.023784 0 1 tcp 1000 ------- 0 2.0 3.0 1 2
- 0.023784 0 1 tcp 1000 ------- 0 2.0 3.0 1 2
r 0.035784 0 1 tcp 1000 ------- 0 2.0 3.0 1 2
+ 0.035784 1 3 tcp 1000 ------- 0 2.0 3.0 1 2
- 0.035784 1 3 tcp 1000 ------- 0 2.0 3.0 1 2
r 0.037584 1 3 tcp 1000 ------- 0 2.0 3.0 1 2
+ 0.037584 3 1 ack 40 ------- 0 3.0 2.0 1 3
- 0.037584 3 1 ack 40 ------- 0 3.0 2.0 1 3
r 0.038616 3 1 ack 40 ------- 0 3.0 2.0 1 3
+ 0.038616 1 0 ack 40 ------- 0 3.0 2.0 1 3
- 0.038616 1 0 ack 40 ------- 0 3.0 2.0 1 3
r 0.042936 1 0 ack 40 ------- 0 3.0 2.0 1 3
+ 0.042936 0 2 ack 40 ------- 0 3.0 2.0 1 3
- 0.042936 0 2 ack 40 ------- 0 3.0 2.0 1 3
r 0.043968 0 2 ack 40 ------- 0 3.0 2.0 1 3
+ 0.043968 2 0 tcp 1000 ------- 0 2.0 3.0 2 4
- 0.043968 2 0 tcp 1000 ------- 0 2.0 3.0 2 4
+ 0.043968 2 0 tcp 1000 ------- 0 2.0 3.0 3 5
+ 0.043968 2 0 tcp 1000 ------- 0 2.0 3.0 4 6
- 0.044768 2 0 tcp 1000 ------- 0 2.0 3.0 3 5
- 0.045568 2 0 tcp 1000 ------- 0 2.0 3.0 4 6
r 0.045768 2 0 tcp 1000 ------- 0 2.0 3.0 2 4
+ 0.045768 0 1 tcp 1000 ------- 0 2.0 3.0 2 4
- 0.045768 0 1 tcp 1000 ------- 0 2.0 3.0 2 4
r 0.046568 2 0 tcp 1000 ------- 0 2.0 3.0 3 5
+ 0.046568 0 1 tcp 1000 ------- 0 2.0 3.0 3 5
r 0.047368 2 0 tcp 1000 ------- 0 2.0 3.0 4 6
+ 0.047368 0 1 tcp 1000 ------- 0 2.0 3.0 4 6
- 0.053768 0 1 tcp 1000 ------- 0 2.0 3.0 3 5
r 0.057768 0 1 tcp 1000 ------- 0 2.0 3.0 2 4
+ 0.057768 1 3 tcp 1000 ------- 0 2.0 3.0 2 4
- 0.057768 1 3 tcp 1000 ------- 0 2.0 3.0 2 4
r 0.059568 1 3 tcp 1000 ------- 0 2.0 3.0 2 4
+ 0.059568 3 1 ack 40 ------- 0 3.0 2.0 2 7
- 0.059568 3 1 ack 40 ------- 0 3.0 2.0 2 7
r 0.0606 3 1 ack 40 ------- 0 3.0 2.0 2 7
+ 0.0606 1 0 ack 40 ------- 0 3.0 2.0 2 7
- 0.0606 1 0 ack 40 ------- 0 3.0 2.0 2 7
- 0.061768 0 1 tcp 1000 ------- 0 2.0 3.0 4 6
r 0.06492 1 0 ack 40 ------- 0 3.0 2.0 2 7
+ 0.06492 0 2 ack 40 ------- 0 3.0 2.0 2 7
- 0.06492 0 2 ack 40 ------- 0 3.0 2.0 2 7
r 0.065768 0 1 tcp 1000 ------- 0 2.0 3.0 3 5
+ 0.065768 1 3 tcp 1000 ------- 0 2.0 3.0 3 5
- 0.065768 1 3 tcp 1000 ------- 0 2.0 3.0 3 5
r 0.065952 0 2 ack 40 ------- 0 3.0 2.0 2 7
+ 0.065952 2 0 tcp 1000 ------- 0 2.0 3.0 5 8
- 0.065952 2 0 tcp 1000 ------- 0 2.0 3.0 5 8
r 0.067568 1 3 tcp 1000 ------- 0 2.0 3.0 3 5
+ 0.067568 3 1 ack 40 ------- 0 3.0 2.0 3 9
- 0.067568 3 1 ack 40 ------- 0 3.0 2.0 3 9
r 0.067752 2 0 tcp 1000 ------- 0 2.0 3.0 5 8
+ 0.067752 0 1 tcp 1000 ------- 0 2.0 3.0 5 8
r 0.0686 3 1 ack 40 ------- 0 3.0 2.0 3 9
+ 0.0686 1 0 ack 40 ------- 0 3.0 2.0 3 9
- 0.0686 1 0 ack 40 ------- 0 3.0 2.0 3 9
- 0.069768 0 1 tcp 1000 ------- 0 2.0 3.0 5 8
r 0.07292 1 0 ack 40 ------- 0 3.0 2.0 3 9
+ 0.07292 0 2 ack 40 ------- 0 3.0 2.0 3 9
- 0.07292 0 2 ack 40 ------- 0 3.0 2.0 3 9
r 0.073768 0 1 tcp 1000 ------- 0 2.0 3.0 4 6
+ 0.073768 1 3 tcp 1000 ------- 0 2.0 3.0 4 6
- 0.073768 1 3 tcp 1000 ------- 0 2.0 3.0 4 6
r 0.073952 0 2 ack 40 ------- 0 3.0 2.0 3 9
+ 0.073952 2 0 tcp 1000 ------- 0 2.0 3.0 6 10
- 0.073952 2 0 tcp 1000 ------- 0 2.0 3.0 6 10
r 0.075568 1 3 tcp 1000 ------- 0 2.0 3.0 4 6
+ 0.075568 3 1 ack 40 ------- 0 3.0 2.0 4 11
- 0.075568 3 1 ack 40 ------- 0 3.0 2.0 4 11
r 0.075752 2 0 tcp 1000 ------- 0 2.0 3.0 6 10
+ 0.075752 0 1 tcp 1000 ------- 0 2.0 3.0 6 10
r 0.0766 3 1 ack 40 ------- 0 3.0 2.0 4 11
+ 0.0766 1 0 ack 40 ------- 0 3.0 2.0 4 11
- 0.0766 1 0 ack 40 ------- 0 3.0 2.0 4 11
- 0.077768 0 1 tcp 1000 ------- 0 2.0 3.0 6 10
r 0.08092 1 0 ack 40 ------- 0 3.0 2.0 4 11
+ 0.08092 0 2 ack 40 ------- 0 3.0 2.0 4 11
- 0.08092 0 2 ack 40 ------- 0 3.0 2.0 4 11
r 0.081768 0 1 tcp 1000 ------- 0 2.0 3.0 5 8
+ 0.081768 1 3 tcp 1000 ------- 0 2.0 3.0 5 8
- 0.081768 1 3 tcp 1000 ------- 0 2.0 3.0 5 8
r 0.081952 0 2 ack 40 ------- 0 3.0 2.0 4 11
+ 0.081952 2 0 tcp 1000 ------- 0 2.0 3.0 7 12
- 0.081952 2 0 tcp 1000 ------- 0 2.0 3.0 7 12
r 0.083568 1 3 tcp 1000 ------- 0 2.0 3.0 5 8
+ 0.083568 3 1 ack 40 ------- 0 3.0 2.0 5 13
- 0.083568 3 1 ack 40 ------- 0 3.0 2.0 5 13
r 0.083752 2 0 tcp 1000 ------- 0 2.0 3.0 7 12
+ 0.083752 0 1 tcp 1000 ------- 0 2.0 3.0 7 12
r 0.0846 3 1 ack 40 ------- 0 3.0 2.0 5 13
+ 0.0846 1 0 ack 40 ------- 0 3.0 2.0 5 13
- 0.0846 1 0 ack 40 ------- 0 3.0 2.0 5 13
- 0.085768 0 1 tcp 1000 ------- 0 2.0 3.0 7 12
r 0.08892 1 0 ack 40 ------- 0 3.0 2.0 5 13
+ 0.08892 0 2 ack 40 ------- 0 3.0 2.0 5 13
- 0.08892 0 2 ack 40 ------- 0 3.0 2.0 5 13
r 0.089768 0 1 tcp 1000 ------- 0 2.0 3.0 6 10
+ 0.089768 1 3 tcp 1000 ------- 0 2.0 3.0 6 10
- 0.089768 1 3 tcp 1000 ------- 0 2.0 3.0 6 10
r 0.089952 0 2 ack 40 ------- 0 3.0 2.0 5 13
+ 0.089952 2 0 tcp 1000 ------- 0 2.0 3.0 8 14
- 0.089952 2 0 tcp 1000 ------- 0 2.0 3.0 8 14
+ 0.089952 2 0 tcp 1000 ------- 0 2.0 3.0 9 15
- 0.090752 2 0 tcp 1000 ------- 0 2.0 3.0 9 15
r 0.091568 1 3 tcp 1000 ------- 0 2.0 3.0 6 10
+ 0.091568 3 1 ack 40 ------- 0 3.0 2.0 6 16
- 0.091568 3 1 ack 40 ------- 0 3.0 2.0 6 16
r 0.091752 2 0 tcp 1000 ------- 0 2.0 3.0 8 14
+ 0.091752 0 1 tcp 1000 ------- 0 2.0 3.0 8 14
r 0.092552 2 0 tcp 1000 ------- 0 2.0 3.0 9 15
+ 0.092552 0 1 tcp 1000 ------- 0 2.0 3.0 9 15
r 0.0926 3 1 ack 40 ------- 0 3.0 2.0 6 16
+ 0.0926 1 0 ack 40 ------- 0 3.0 2.0 6 16
- 0.0926 1 0 ack 40 ------- 0 3.0 2.0 6 16
- 0.093768 0 1 tcp 1000 ------- 0 2.0 3.0 8 14
r 0.09692 1 0 ack 40 ------- 0 3.0 2.0 6 16
+ 0.09692 0 2 ack 40 ------- 0 3.0 2.0 6 16
- 0.09692 0 2 ack 40 ------- 0 3.0 2.0 6 16
r 0.097768 0 1 tcp 1000 ------- 0 2.0 3.0 7 12
+ 0.097768 1 3 tcp 1000 ------- 0 2.0 3.0 7 12
- 0.097768 1 3 tcp 1000 ------- 0 2.0 3.0 7 12
r 0.097952 0 2 ack 40 ------- 0 3.0 2.0 6 16
+ 0.097952 2 0 tcp 1000 ------- 0 2.0 3.0 10 17
- 0.097952 2 0 tcp 1000 ------- 0 2.0 3.0 10 17
+ 0.097952 2 0 tcp 1000 ------- 0 2.0 3.0 11 18
- 0.098752 2 0 tcp 1000 ------- 0 2.0 3.0 11 18
r 0.099568 1 3 tcp 1000 ------- 0 2.0 3.0 7 12
+ 0.099568 3 1 ack 40 ------- 0 3.0 2.0 7 19
- 0.099568 3 1 ack 40 ------- 0 3.0 2.0 7 19
r 0.099752 2 0 tcp 1000 ------- 0 2.0 3.0 10 17
+ 0.099752 0 1 tcp 1000 ------- 0 2.0 3.0 10 17
r 0.100552 2 0 tcp 1000 ------- 0 2.0 3.0 11 18
+ 0.100552 0 1 tcp 1000 ------- 0 2.0 3.0 11 18
r 0.1006 3 1 ack 40 ------- 0 3.0 2.0 7 19
+ 0.1006 1 0 ack 40 ------- 0 3.0 2.0 7 19
- 0.1006 1 0 ack 40 ------- 0 3.0 2.0 7 19
- 0.101768 0 1 tcp 1000 ------- 0 2.0 3.0 9 15
r 0.10492 1 0 ack 40 ------- 0 3.0 2.0 7 19
+ 0.10492 0 2 ack 40 ------- 0 3.0 2.0 7 19
- 0.10492 0 2 ack 40 ------- 0 3.0 2.0 7 19
r 0.105768 0 1 tcp 1000 ------- 0 2.0 3.0 8 14
+ 0.105768 1 3 tcp 1000 ------- 0 2.0 3.0 8 14
- 0.105768 1 3 tcp 1000 ------- 0 2.0 3.0 8 14
r 0.105952 0 2 ack 40 ------- 0 3.0 2.0 7 19
+ 0.105952 2 0 tcp 1000 ------- 0 2.0 3.0 12 20
- 0.105952 2 0 tcp 1000 ------- 0 2.0 3.0 12 20
+ 0.105952 2 0 tcp 1000 ------- 0 2.0 3.0 13 21
- 0.106752 2 0 tcp 1000 ------- 0 2.0 3.0 13 21
r 0.107568 1 3 tcp 1000 ------- 0 2.0 3.0 8 14
+ 0.107568 3 1 ack 40 ------- 0 3.0 2.0 8 22
- 0.107568 3 1 ack 40 ------- 0 3.0 2.0 8 22
r 0.107752 2 0 tcp 1000 ------- 0 2.0 3.0 12 20
+ 0.107752 0 1 tcp 1000 ------- 0 2.0 3.0 12 20
r 0.108552 2 0 tcp 1000 ------- 0 2.0 3.0 13 21
+ 0.108552 0 1 tcp 1000 ------- 0 2.0 3.0 13 21
r 0.1086 3 1 ack 40 ------- 0 3.0 2.0 8 22
+ 0.1086 1 0 ack 40 ------- 0 3.0 2.0 8 22
- 0.1086 1 0 ack 40 ------- 0 3.0 2.0 8 22
- 0.109768 0 1 tcp 1000 ------- 0 2.0 3.0 10 17
r 0.11292 1 0 ack 40 ------- 0 3.0 2.0 8 22
+ 0.11292 0 2 ack 40 ------- 0 3.0 2.0 8 22
- 0.11292 0 2 ack 40 ------- 0 3.0 2.0 8 22
r 0.113768 0 1 tcp 1000 ------- 0 2.0 3.0 9 15
+ 0.113768 1 3 tcp 1000 ------- 0 2.0 3.0 9 15
- 0.113768 1 3 tcp 1000 ------- 0 2.0 3.0 9 15
r 0.113952 0 2 ack 40 ------- 0 3.0 2.0 8 22
+ 0.113952 2 0 tcp 1000 ------- 0 2.0 3.0 14 23
- 0.113952 2 0 tcp 1000 ------- 0 2.0 3.0 14 23
r 0.115568 1 3 tcp 1000 ------- 0 2.0 3.0 9 15
+ 0.115568 3 1 ack 40 ------- 0 3.0 2.0 9 24
- 0.115568 3 1 ack 40 ------- 0 3.0 2.0 9 24
r 0.115752 2 0 tcp 1000 ------- 0 2.0 3.0 14 23
+ 0.115752 0 1 tcp 1000 ------- 0 2.0 3.0 14 23
r 0.1166 3 1 ack 40 ------- 0 3.0 2.0 9 24
+ 0.1166 1 0 ack 40 ------- 0 3.0 2.0 9 24
- 0.1166 1 0 ack 40 ------- 0 3.0 2.0 9 24
- 0.117768 0 1 tcp 1000 ------- 0 2.0 3.0 11 18
r 0.12092 1 0 ack 40 ------- 0 3.0 2.0 9 24
+ 0.12092 0 2 ack 40 ------- 0 3.0 2.0 9 24
- 0.12092 0 2 ack 40 ------- 0 3.0 2.0 9 24
r 0.121768 0 1 tcp 1000 ------- 0 2.0 3.0 10 17
+ 0.121768 1 3 tcp 1000 ------- 0 2.0 3.0 10 17
- 0.121768 1 3 tcp 1000 ------- 0 2.0 3.0 10 17
r 0.121952 0 2 ack 40 ------- 0 3.0 2.0 9 24
+ 0.121952 2 0 tcp 1000 ------- 0 2.0 3.0 15 25
- 0.121952 2 0 tcp 1000 ------- 0 2.0 3.0 15 25
r 0.123568 1 3 tcp 1000 ------- 0 2.0 3.0 10 17
+ 0.123568 3 1 ack 40 ------- 0 3.0 2.0 10 26
- 0.123568 3 1 ack 40 ------- 0 3.0 2.0 10 26
r 0.123752 2 0 tcp 1000 ------- 0 2.0 3.0 15 25
+ 0.123752 0 1 tcp 1000 ------- 0 2.0 3.0 15 25
r 0.1246 3 1 ack 40 ------- 0 3.0 2.0 10 26
+ 0.1246 1 0 ack 40 ------- 0 3.0 2.0 10 26
- 0.1246 1 0 ack 40 ------- 0 3.0 2.0 10 26
- 0.125768 0 1 tcp 1000 ------- 0 2.0 3.0 12 20
r 0.12892 1 0 ack 40 ------- 0 3.0 2.0 10 26
+ 0.12892 0 2 ack 40 ------- 0 3.0 2.0 10 26
- 0.12892 0 2 ack 40 ------- 0 3.0 2.0 10 26
r 0.129768 0 1 tcp 1000 ------- 0 2.0 3.0 11 18
+ 0.129768 1 3 tcp 1000 ------- 0 2.0 3.0 11 18
- 0.129768 1 3 tcp 1000 ------- 0 2.0 3.0 11 18
r 0.129952 0 2 ack 40 ------- 0 3.0 2.0 10 26
+ 0.129952 2 0 tcp 1000 ------- 0 2.0 3.0 16 27
- 0.129952 2 0 tcp 1000 ------- 0 2.0 3.0 16 27
r 0.131568 1 3 tcp 1000 ------- 0 2.0 3.0 11 18
+ 0.131568 3 1 ack 40 ------- 0 3.0 2.0 11 28
- 0.131568 3 1 ack 40 ------- 0 3.0 2.0 11 28
r 0.131752 2 0 tcp 1000 ------- 0 2.0 3.0 16 27
+ 0.131752 0 1 tcp 1000 ------- 0 2.0 3.0 16 27
r 0.1326 3 1 ack 40 ------- 0 3.0 2.0 11 28
+ 0.1326 1 0 ack 40 ------- 0 3.0 2.0 11 28
- 0.1326 1 0 ack 40 ------- 0 3.0 2.0 11 28
- 0.133768 0 1 tcp 1000 ------- 0 2.0 3.0 13 21
r 0.13692 1 0 ack 40 ------- 0 3.0 2.0 11 28
+ 0.13692 0 2 ack 40 ------- 0 3.0 2.0 11 28
- 0.13692 0 2 ack 40 ------- 0 3.0 2.0 11 28
r 0.137768 0 1 tcp 1000 ------- 0 2.0 3.0 12 20
+ 0.137768 1 3 tcp 1000 ------- 0 2.0 3.0 12 20
- 0.137768 1 3 tcp 1000 ------- 0 2.0 3.0 12 20
r 0.137952 0 2 ack 40 ------- 0 3.0 2.0 11 28
+ 0.137952 2 0 tcp 1000 ------- 0 2.0 3.0 17 29
- 0.137952 2 0 tcp 1000 ------- 0 2.0 3.0 17 29
r 0.139568 1 3 tcp 1000 ------- 0 2.0 3.0 12 20
+ 0.139568 3 1 ack 40 ------- 0 3.0 2.0 12 30
- 0.139568 3 1 ack 40 ------- 0 3.0 2.0 12 30
r 0.139752 2 0 tcp 1000 ------- 0 2.0 3.0 17 29
+ 0.139752 0 1 tcp 1000 ------- 0 2.0 3.0 17 29
r 0.1406 3 1 ack 40 ------- 0 3.0 2.0 12 30
+ 0.1406 1 0 ack 40 ------- 0 3.0 2.0 12 30
- 0.1406 1 0 ack 40 ------- 0 3.0 2.0 12 30
- 0.141768 0 1 tcp 1000 ------- 0 2.0 3.0 14 23
r 0.14492 1 0 ack 40 ------- 0 3.0 2.0 12 30
+ 0.14492 0 2 ack 40 ------- 0 3.0 2.0 12 30
- 0.14492 0 2 ack 40 ------- 0 3.0 2.0 12 30
r 0.145768 0 1 tcp 1000 ------- 0 2.0 3.0 13 21
+ 0.145768 1 3 tcp 1000 ------- 0 2.0 3.0 13 21
- 0.145768 1 3 tcp 1000 ------- 0 2.0 3.0 13 21
r 0.145952 0 2 ack 40 ------- 0 3.0 2.0 12 30
+ 0.145952 2 0 tcp 1000 ------- 0 2.0 3.0 18 31
- 0.145952 2 0 tcp 1000 ------- 0 2.0 3.0 18 31
r 0.147568 1 3 tcp 1000 ------- 0 2.0 3.0 13 21
+ 0.147568 3 1 ack 40 ------- 0 3.0 2.0 13 32
- 0.147568 3 1 ack 40 ------- 0 3.0 2.0 13 32
r 0.147752 2 0 tcp 1000 ------- 0 2.0 3.0 18 31
+ 0.147752 0 1 tcp 1000 ------- 0 2.0 3.0 18 31
r 0.1486 3 1 ack 40 ------- 0 3.0 2.0 13 32
+ 0.1486 1 0 ack 40 ------- 0 3.0 2.0 13 32
- 0.1486 1 0 ack 40 ------- 0 3.0 2.0 13 32
- 0.149768 0 1 tcp 1000 ------- 0 2.0 3.0 15 25
r 0.15292 1 0 ack 40 ------- 0 3.0 2.0 13 32
+ 0.15292 0 2 ack 40 ------- 0 3.0 2.0 13 32
- 0.15292 0 2 ack 40 ------- 0 3.0 2.0 13 32
r 0.153768 0 1 tcp 1000 ------- 0 2.0 3.0 14 23
+ 0.153768 1 3 tcp 1000 ------- 0 2.0 3.0 14 23
- 0.153768 1 3 tcp 1000 ------- 0 2.0 3.0 14 23
r 0.153952 0 2 ack 40 ------- 0 3.0 2.0 13 32
+ 0.153952 2 0 tcp 1000 ------- 0 2.0 3.0 19 33
- 0.153952 2 0 tcp 1000 ------- 0 2.0 3.0 19 33
r 0.155568 1 3 tcp 1000 ------- 0 2.0 3.0 14 23
+ 0.155568 3 1 ack 40 ------- 0 3.0 2.0 14 34
- 0.155568 3 1 ack 40 ------- 0 3.0 2.0 14 34
r 0.155752 2 0 tcp 1000 ------- 0 2.0 3.0 19 33
+ 0.155752 0 1 tcp 1000 ------- 0 2.0 3.0 19 33
r 0.1566 3 1 ack 40 ------- 0 3.0 2.0 14 34
+ 0.1566 1 0 ack 40 ------- 0 3.0 2.0 14 34
- 0.1566 1 0 ack 40 ------- 0 3.0 2.0 14 34
- 0.157768 0 1 tcp 1000 ------- 0 2.0 3.0 16 27
r 0.16092 1 0 ack 40 ------- 0 3.0 2.0 14 34
+ 0.16092 0 2 ack 40 ------- 0 3.0 2.0 14 34
- 0.16092 0 2 ack 40 ------- 0 3.0 2.0 14 34
r 0.161768 0 1 tcp 1000 ------- 0 2.0 3.0 15 25
+ 0.161768 1 3 tcp 1000 ------- 0 2.0 3.0 15 25
- 0.161768 1 3 tcp 1000 ------- 0 2.0 3.0 15 25
r 0.161952 0 2 ack 40 ------- 0 3.0 2.0 14 34
r 0.163568 1 3 tcp 1000 ------- 0 2.0 3.0 15 25
+ 0.163568 3 1 ack 40 ------- 0 3.0 2.0 15 35
- 0.163568 3 1 ack 40 ------- 0 3.0 2.0 15 35
r 0.1646 3 1 ack 40 ------- 0 3.0 2.0 15 35
+ 0.1646 1 0 ack 40 ------- 0 3.0 2.0 15 35
- 0.1646 1 0 ack 40 ------- 0 3.0 2.0 15 35
- 0.165768 0 1 tcp 1000 ------- 0 2.0 3.0 17 29
r 0.16892 1 0 ack 40 ------- 0 3.0 2.0 15 35
+ 0.16892 0 2 ack 40 ------- 0 3.0 2.0 15 35
- 0.16892 0 2 ack 40 ------- 0 3.0 2.0 15 35
r 0.169768 0 1 tcp 1000 ------- 0 2.0 3.0 16 27
+ 0.169768 1 3 tcp 1000 ------- 0 2.0 3.0 16 27
- 0.169768 1 3 tcp 1000 ------- 0 2.0 3.0 16 27
r 0.169952 0 2 ack 40 ------- 0 3.0 2.0 15 35
+ 0.169952 2 0 tcp 1000 ------- 0 2.0 3.0 20 36
- 0.169952 2 0 tcp 1000 ------- 0 2.0 3.0 20 36
r 0.171568 1 3 tcp 1000 ------- 0 2.0 3.0 16 27
+ 0.171568 3 1 ack 40 ------- 0 3.0 2.0 16 37
- 0.171568 3 1 ack 40 ------- 0 3.0 2.0 16 37
r 0.171752 2 0 tcp 1000 ------- 0 2.0 3.0 20 36
+ 0.171752 0 1 tcp 1000 ------- 0 2.0 3.0 20 36
r 0.1726 3 1 ack 40 ------- 0 3.0 2.0 16 37
+ 0.1726 1 0 ack 40 ------- 0 3.0 2.0 16 37
- 0.1726 1 0 ack 40 ------- 0 3.0 2.0 16 37
- 0.173768 0 1 tcp 1000 ------- 0 2.0 3.0 18 31
r 0.17692 1 0 ack 40 ------- 0 3.0 2.0 16 37
+ 0.17692 0 2 ack 40 ------- 0 3.0 2.0 16 37
- 0.17692 0 2 ack 40 ------- 0 3.0 2.0 16 37
r 0.177768 0 1 tcp 1000 ------- 0 2.0 3.0 17 29
+ 0.177768 1 3 tcp 1000 ------- 0 2.0 3.0 17 29
- 0.177768 1 3 tcp 1000 ------- 0 2.0 3.0 17 29
r 0.177952 0 2 ack 40 ------- 0 3.0 2.0 16 37
+ 0.177952 2 0 tcp 1000 ------- 0 2.0 3.0 21 38
- 0.177952 2 0 tcp 1000 ------- 0 2.0 3.0 21 38
r 0.179568 1 3 tcp 1000 ------- 0 2.0 3.0 17 29
+ 0.179568 3 1 ack 40 ------- 0 3.0 2.0 17 39
- 0.179568 3 1 ack 40 ------- 0 3.0 2.0 17 39
r 0.179752 2 0 tcp 1000 ------- 0 2.0 3.0 21 38
+ 0.179752 0 1 tcp 1000 ------- 0 2.0 3.0 21 38
r 0.1806 3 1 ack 40 ------- 0 3.0 2.0 17 39
+ 0.1806 1 0 ack 40 ------- 0 3.0 2.0 17 39
- 0.1806 1 0 ack 40 ------- 0 3.0 2.0 17 39
- 0.181768 0 1 tcp 1000 ------- 0 2.0 3.0 19 33
r 0.18492 1 0 ack 40 ------- 0 3.0 2.0 17 39
+ 0.18492 0 2 ack 40 ------- 0 3.0 2.0 17 39
- 0.18492 0 2 ack 40 ------- 0 3.0 2.0 17 39
r 0.185768 0 1 tcp 1000 ------- 0 2.0 3.0 18 31
+ 0.185768 1 3 tcp 1000 ------- 0 2.0 3.0 18 31
- 0.185768 1 3 tcp 1000 ------- 0 2.0 3.0 18 31
r 0.185952 0 2 ack 40 ------- 0 3.0 2.0 17 39
+ 0.185952 2 0 tcp 1000 ------- 0 2.0 3.0 22 40
- 0.185952 2 0 tcp 1000 ------- 0 2.0 3.0 22 40
r 0.187568 1 3 tcp 1000 ------- 0 2.0 3.0 18 31
+ 0.187568 3 1 ack 40 ------- 0 3.0 2.0 18 41
- 0.187568 3 1 ack 40 ------- 0 3.0 2.0 18 41
r 0.187752 2 0 tcp 1000 ------- 0 2.0 3.0 22 40
+ 0.187752 0 1 tcp 1000 ------- 0 2.0 3.0 22 40
r 0.1886 3 1 ack 40 ------- 0 3.0 2.0 18 41
+ 0.1886 1 0 ack 40 ------- 0 3.0 2.0 18 41
- 0.1886 1 0 ack 40 ------- 0 3.0 2.0 18 41
- 0.189768 0 1 tcp 1000 ------- 0 2.0 3.0 20 36
r 0.19292 1 0 ack 40 ------- 0 3.0 2.0 18 41
+ 0.19292 0 2 ack 40 ------- 0 3.0 2.0 18 41
- 0.19292 0 2 ack 40 ------- 0 3.0 2.0 18 41
r 0.193768 0 1 tcp 1000 ------- 0 2.0 3.0 19 33
+ 0.193768 1 3 tcp 1000 ------- 0 2.0 3.0 19 33
- 0.193768 1 3 tcp 1000 ------- 0 2.0 3.0 19 33
r 0.193952 0 2 ack 40 ------- 0 3.0 2.0 18 41
+ 0.193952 2 0 tcp 1000 ------- 0 2.0 3.0 23 42
- 0.193952 2 0 tcp 1000 ------- 0 2.0 3.0 23 42
r 0.195568 1 3 tcp 1000 ------- 0 2.0 3.0 19 33
+ 0.195568 3 1 ack 40 ------- 0 3.0 2.0 19 43
- 0.195568 3 1 ack 40 ------- 0 3.0 2.0 19 43
r 0.195752 2 0 tcp 1000 ------- 0 2.0 3.0 23 42
+ 0.195752 0 1 tcp 1000 ------- 0 2.0 3.0 23 42
r 0.1966 3 1 ack 40 ------- 0 3.0 2.0 19 43
+ 0.1966 1 0 ack 40 ------- 0 3.0 2.0 19 43
- 0.1966 1 0 ack 40 ------- 0 3.0 2.0 19 43
- 0.197768 0 1 tcp 1000 ------- 0 2.0 3.0 21 38
r 0.20092 1 0 ack 40 ------- 0 3.0 2.0 19 43
+ 0.20092 0 2 ack 40 ------- 0 3.0 2.0 19 43
- 0.20092 0 2 ack 40 ------- 0 3.0 2.0 19 43
r 0.201768 0 1 tcp 1000 ------- 0 2.0 3.0 20 36
+ 0.201768 1 3 tcp 1000 ------- 0 2.0 3.0 20 36
- 0.201768 1 3 tcp 1000 ------- 0 2.0 3.0 20 36
r 0.201952 0 2 ack 40 ------- 0 3.0 2.0 19 43
+ 0.201952 2 0 tcp 1000 ------- 0 2.0 3.0 24 44
- 0.201952 2 0 tcp 1000 ------- 0 2.0 3.0 24 44
r 0.203568 1 3 tcp 1000 ------- 0 2.0 3.0 20 36
+ 0.203568 3 1 ack 40 ------- 0 3.0 2.0 20 45
- 0.203568 3 1 ack 40 ------- 0 3.0 2.0 20 45
r 0.203752 2 0 tcp 1000 ------- 0 2.0 3.0 24 44
+ 0.203752 0 1 tcp 1000 ------- 0 2.0 3.0 24 44
r 0.2046 3 1 ack 40 ------- 0 3.0 2.0 20 45
+ 0.2046 1 0 ack 40 ------- 0 3.0 2.0 20 45
- 0.2046 1 0 ack 40 ------- 0 3.0 2.0 20 45
- 0.205768 0 1 tcp 1000 ------- 0 2.0 3.0 22 40
r 0.20892 1 0 ack 40 ------- 0 3.0 2.0 20 45
+ 0.20892 0 2 ack 40 ------- 0 3.0 2.0 20 45
- 0.20892 0 2 ack 40 ------- 0 3.0 2.0 20 45
r 0.209768 0 1 tcp 1000 ------- 0 2.0 3.0 21 38
+ 0.209768 1 3 tcp 1000 ------- 0 2.0 3.0 21 38
- 0.209768 1 3 tcp 1000 ------- 0 2.0 3.0 21 38
r 0.209952 0 2 ack 40 ------- 0 3.0 2.0 20 45
+ 0.209952 2 0 tcp 1000 ------- 0 2.0 3.0 25 46
- 0.209952 2 0 tcp 1000 ------- 0 2.0 3.0 25 46
r 0.211568 1 3 tcp 1000 ------- 0 2.0 3.0 21 38
+ 0.211568 3 1 ack 40 ------- 0 3.0 2.0 21 47
- 0.211568 3 1 ack 40 ------- 0 3.0 2.0 21 47
r 0.211752 2 0 tcp 1000 ------- 0 2.0 3.0 25 46
+ 0.211752 0 1 tcp 1000 ------- 0 2.0 3.0 25 46
r 0.2126 3 1 ack 40 ------- 0 3.0 2.0 21 47
+ 0.2126 1 0 ack 40 ------- 0 3.0 2.0 21 47
- 0.2126 1 0 ack 40 ------- 0 3.0 2.0 21 47
- 0.213768 0 1 tcp 1000 ------- 0 2.0 3.0 23 42
r 0.21692 1 0 ack 40 ------- 0 3.0 2.0 21 47
+ 0.21692 0 2 ack 40 ------- 0 3.0 2.0 21 47
- 0.21692 0 2 ack 40 ------- 0 3.0 2.0 21 47
r 0.217768 0 1 tcp 1000 ------- 0 2.0 3.0 22 40
+ 0.217768 1 3 tcp 1000 ------- 0 2.0 3.0 22 40
- 0.217768 1 3 tcp 1000 ------- 0 2.0 3.0 22 40
r 0.217952 0 2 ack 40 ------- 0 3.0 2.0 21 47
+ 0.217952 2 0 tcp 1000 ------- 0 2.0 3.0 26 48
- 0.217952 2 0 tcp 1000 ------- 0 2.0 3.0 26 48
r 0.219568 1 3 tcp 1000 ------- 0 2.0 3.0 22 40
+ 0.219568 3 1 ack 40 ------- 0 3.0 2.0 22 49
- 0.219568 3 1 ack 40 ------- 0 3.0 2.0 22 49
r 0.219752 2 0 tcp 1000 ------- 0 2.0 3.0 26 48
+ 0.219752 0 1 tcp 1000 ------- 0 2.0 3.0 26 48
r 0.2206 3 1 ack 40 ------- 0 3.0 2.0 22 49
+ 0.2206 1 0 ack 40 ------- 0 3.0 2.0 22 49
- 0.2206 1 0 ack 40 ------- 0 3.0 2.0 22 49
- 0.221768 0 1 tcp 1000 ------- 0 2.0 3.0 24 44
r 0.22492 1 0 ack 40 ------- 0 3.0 2.0 22 49
+ 0.22492 0 2 ack 40 ------- 0 3.0 2.0 22 49
- 0.22492 0 2 ack 40 ------- 0 3.0 2.0 22 49
r 0.225768 0 1 tcp 1000 ------- 0 2.0 3.0 23 42
+ 0.225768 1 3 tcp 1000 ------- 0 2.0 3.0 23 42
- 0.225768 1 3 tcp 1000 ------- 0 2.0 3.0 23 42
r 0.225952 0 2 ack 40 ------- 0 3.0 2.0 22 49
+ 0.225952 2 0 tcp 1000 ------- 0 2.0 3.0 27 50
- 0.225952 2 0 tcp 1000 ------- 0 2.0 3.0 27 50
r 0.227568 1 3 tcp 1000 ------- 0 2.0 3.0 23 42
+ 0.227568 3 1 ack 40 ------- 0 3.0 2.0 23 51
- 0.227568 3 1 ack 40 ------- 0 3.0 2.0 23 51
r 0.227752 2 0 tcp 1000 ------- 0 2.0 3.0 27 50
+ 0.227752 0 1 tcp 1000 ------- 0 2.0 3.0 27 50
r 0.2286 3 1 ack 40 ------- 0 3.0 2.0 23 51
+ 0.2286 1 0 ack 40 ------- 0 3.0 2.0 23 51
- 0.2286 1 0 ack 40 ------- 0 3.0 2.0 23 51
- 0.229768 0 1 tcp 1000 ------- 0 2.0 3.0 25 46
r 0.23292 1 0 ack 40 ------- 0 3.0 2.0 23 51
+ 0.23292 0 2 ack 40 ------- 0 3.0 2.0 23 51
- 0.23292 0 2 ack 40 ------- 0 3.0 2.0 23 51
r 0.233768 0 1 tcp 1000 ------- 0 2.0 3.0 24 44
+ 0.233768 1 3 tcp 1000 ------- 0 2.0 3.0 24 44
- 0.233768 1 3 tcp 1000 ------- 0 2.0 3.0 24 44
r 0.233952 0 2 ack 40 ------- 0 3.0 2.0 23 51
+ 0.233952 2 0 tcp 1000 ------- 0 2.0 3.0 28 52
- 0.233952 2 0 tcp 1000 ------- 0 2.0 3.0 28 52
r 0.235568 1 3 tcp 1000 ------- 0 2.0 3.0 24 44
+ 0.235568 3 1 ack 40 ------- 0 3.0 2.0 24 53
- 0.235568 3 1 ack 40 ------- 0 3.0 2.0 24 53
r 0.235752 2 0 tcp 1000 ------- 0 2.0 3.0 28 52
+ 0.235752 0 1 tcp 1000 ------- 0 2.0 3.0 28 52
r 0.2366 3 1 ack 40 ------- 0 3.0 2.0 24 53
+ 0.2366 1 0 ack 40 ------- 0 3.0 2.0 24 53
- 0.2366 1 0 ack 40 ------- 0 3.0 2.0 24 53
- 0.237768 0 1 tcp 1000 ------- 0 2.0 3.0 26 48
r 0.24092 1 0 ack 40 ------- 0 3.0 2.0 24 53
+ 0.24092 0 2 ack 40 ------- 0 3.0 2.0 24 53
- 0.24092 0 2 ack 40 ------- 0 3.0 2.0 24 53
r 0.241768 0 1 tcp 1000 ------- 0 2.0 3.0 25 46
+ 0.241768 1 3 tcp 1000 ------- 0 2.0 3.0 25 46
- 0.241768 1 3 tcp 1000 ------- 0 2.0 3.0 25 46
r 0.241952 0 2 ack 40 ------- 0 3.0 2.0 24 53
+ 0.241952 2 0 tcp 1000 ------- 0 2.0 3.0 29 54
- 0.241952 2 0 tcp 1000 ------- 0 2.0 3.0 29 54
r 0.243568 1 3 tcp 1000 ------- 0 2.0 3.0 25 46
+ 0.243568 3 1 ack 40 ------- 0 3.0 2.0 25 55
- 0.243568 3 1 ack 40 ------- 0 3.0 2.0 25 55
r 0.243752 2 0 tcp 1000 ------- 0 2.0 3.0 29 54
+ 0.243752 0 1 tcp 1000 ------- 0 2.0 3.0 29 54
r 0.2446 3 1 ack 40 ------- 0 3.0 2.0 25 55
+ 0.2446 1 0 ack 40 ------- 0 3.0 2.0 25 55
- 0.2446 1 0 ack 40 ------- 0 3.0 2.0 25 55
- 0.245768 0 1 tcp 1000 ------- 0 2.0 3.0 27 50
r 0.24892 1 0 ack 40 ------- 0 3.0 2.0 25 55
+ 0.24892 0 2 ack 40 ------- 0 3.0 2.0 25 55
- 0.24892 0 2 ack 40 ------- 0 3.0 2.0 25 55
r 0.249768 0 1 tcp 1000 ------- 0 2.0 3.0 26 48
+ 0.249768 1 3 tcp 1000 ------- 0 2.0 3.0 26 48
- 0.249768 1 3 tcp 1000 ------- 0 2.0 3.0 26 48
r 0.249952 0 2 ack 40 ------- 0 3.0 2.0 25 55
+ 0.249952 2 0 tcp 1000 ------- 0 2.0 3.0 30 56
- 0.249952 2 0 tcp 1000 ------- 0 2.0 3.0 30 56
r 0.251568 1 3 tcp 1000 ------- 0 2.0 3.0 26 48
+ 0.251568 3 1 ack 40 ------- 0 3.0 2.0 26 57
- 0.251568 3 1 ack 40 ------- 0 3.0 2.0 26 57
r 0.251752 2 0 tcp 1000 ------- 0 2.0 3.0 30 56
+ 0.251752 0 1 tcp 1000 ------- 0 2.0 3.0 30 56
r 0.2526 3 1 ack 40 ------- 0 3.0 2.0 26 57
+ 0.2526 1 0 ack 40 ------- 0 3.0 2.0 26 57
- 0.2526 1 0 ack 40 ------- 0 3.0 2.0 26 57
- 0.253768 0 1 tcp 1000 ------- 0 2.0 3.0 28 52
r 0.25692 1 0 ack 40 ------- 0 3.0 2.0 26 57
+ 0.25692 0 2 ack 40 ------- 0 3.0 2.0 26 57
- 0.25692 0 2 ack 40 ------- 0 3.0 2.0 26 57
r 0.257768 0 1 tcp 1000 ------- 0 2.0 3.0 27 50
+ 0.257768 1 3 tcp 1000 ------- 0 2.0 3.0 27 50
- 0.257768 1 3 tcp 1000 ------- 0 2.0 3.0 27 50
r 0.257952 0 2 ack 40 ------- 0 3.0 2.0 26 57
+ 0.257952 2 0 tcp 1000 ------- 0 2.0 3.0 31 58
- 0.257952 2 0 tcp 1000 ------- 0 2.0 3.0 31 58
r 0.259568 1 3 tcp 1000 ------- 0 2.0 3.0 27 50
+ 0.259568 3 1 ack 40 ------- 0 3.0 2.0 27 59
- 0.259568 3 1 ack 40 ------- 0 3.0 2.0 27 59
r 0.259752 2 0 tcp 1000 ------- 0 2.0 3.0 31 58
+ 0.259752 0 1 tcp 1000 ------- 0 2.0 3.0 31 58
r 0.2606 3 1 ack 40 ------- 0 3.0 2.0 27 59
+ 0.2606 1 0 ack 40 ------- 0 3.0 2.0 27 59
- 0.2606 1 0 ack 40 ------- 0 3.0 2.0 27 59
- 0.261768 0 1 tcp 1000 ------- 0 2.0 3.0 29 54
r 0.26492 1 0 ack 40 ------- 0 3.0 2.0 27 59
+ 0.26492 0 2 ack 40 ------- 0 3.0 2.0 27 59
- 0.26492 0 2 ack 40 ------- 0 3.0 2.0 27 59
r 0.265768 0 1 tcp 1000 ------- 0 2.0 3.0 28 52
+ 0.265768 1 3 tcp 1000 ------- 0 2.0 3.0 28 52
- 0.265768 1 3 tcp 1000 ------- 0 2.0 3.0 28 52
r 0.265952 0 2 ack 40 ------- 0 3.0 2.0 27 59
+ 0.265952 2 0 tcp 1000 ------- 0 2.0 3.0 32 60
- 0.265952 2 0 tcp 1000 ------- 0 2.0 3.0 32 60
r 0.267568 1 3 tcp 1000 ------- 0 2.0 3.0 28 52
+ 0.267568 3 1 ack 40 ------- 0 3.0 2.0 28 61
- 0.267568 3 1 ack 40 ------- 0 3.0 2.0 28 61
r 0.267752 2 0 tcp 1000 ------- 0 2.0 3.0 32 60
+ 0.267752 0 1 tcp 1000 ------- 0 2.0 3.0 32 60
r 0.2686 3 1 ack 40 ------- 0 3.0 2.0 28 61
+ 0.2686 1 0 ack 40 ------- 0 3.0 2.0 28 61
- 0.2686 1 0 ack 40 ------- 0 3.0 2.0 28 61
- 0.269768 0 1 tcp 1000 ------- 0 2.0 3.0 30 56
r 0.27292 1 0 ack 40 ------- 0 3.0 2.0 28 61
+ 0.27292 0 2 ack 40 ------- 0 3.0 2.0 28 61
- 0.27292 0 2 ack 40 ------- 0 3.0 2.0 28 61
r 0.273768 0 1 tcp 1000 ------- 0 2.0 3.0 29 54
+ 0.273768 1 3 tcp 1000 ------- 0 2.0 3.0 29 54
- 0.273768 1 3 tcp 1000 ------- 0 2.0 3.0 29 54
r 0.273952 0 2 ack 40 ------- 0 3.0 2.0 28 61
+ 0.273952 2 0 tcp 1000 ------- 0 2.0 3.0 33 62
- 0.273952 2 0 tcp 1000 ------- 0 2.0 3.0 33 62
r 0.275568 1 3 tcp 1000 ------- 0 2.0 3.0 29 54
+ 0.275568 3 1 ack 40 ------- 0 3.0 2.0 29 63
- 0.275568 3 1 ack 40 ------- 0 3.0 2.0 29 63
r 0.275752 2 0 tcp 1000 ------- 0 2.0 3.0 33 62
+ 0.275752 0 1 tcp 1000 ------- 0 2.0 3.0 33 62
r 0.2766 3 1 ack 40 ------- 0 3.0 2.0 29 63
+ 0.2766 1 0 ack 40 ------- 0 3.0 2.0 29 63
- 0.2766 1 0 ack 40 ------- 0 3.0 2.0 29 63
- 0.277768 0 1 tcp 1000 ------- 0 2.0 3.0 31 58
r 0.28092 1 0 ack 40 ------- 0 3.0 2.0 29 63
+ 0.28092 0 2 ack 40 ------- 0 3.0 2.0 29 63
- 0.28092 0 2 ack 40 ------- 0 3.0 2.0 29 63
r 0.281768 0 1 tcp 1000 ------- 0 2.0 3.0 30 56
+ 0.281768 1 3 tcp 1000 ------- 0 2.0 3.0 30 56
- 0.281768 1 3 tcp 1000 ------- 0 2.0 3.0 30 56
r 0.281952 0 2 ack 40 ------- 0 3.0 2.0 29 63
+ 0.281952 2 0 tcp 1000 ------- 0 2.0 3.0 34 64
- 0.281952 2 0 tcp 1000 ------- 0 2.0 3.0 34 64
r 0.283568 1 3 tcp 1000 ------- 0 2.0 3.0 30 56
+ 0.283568 3 1 ack 40 ------- 0 3.0 2.0 30 65
- 0.283568 3 1 ack 40 ------- 0 3.0 2.0 30 65
r 0.283752 2 0 tcp 1000 ------- 0 2.0 3.0 34 64
+ 0.283752 0 1 tcp 1000 ------- 0 2.0 3.0 34 64
r 0.2846 3 1 ack 40 ------- 0 3.0 2.0 30 65
+ 0.2846 1 0 ack 40 ------- 0 3.0 2.0 30 65
- 0.2846 1 0 ack 40 ------- 0 3.0 2.0 30 65
- 0.285768 0 1 tcp 1000 ------- 0 2.0 3.0 32 60
r 0.28892 1 0 ack 40 ------- 0 3.0 2.0 30 65
+ 0.28892 0 2 ack 40 ------- 0 3.0 2.0 30 65
- 0.28892 0 2 ack 40 ------- 0 3.0 2.0 30 65
r 0.289768 0 1 tcp 1000 ------- 0 2.0 3.0 31 58
+ 0.289768 1 3 tcp 1000 ------- 0 2.0 3.0 31 58
- 0.289768 1 3 tcp 1000 ------- 0 2.0 3.0 31 58
r 0.289952 0 2 ack 40 ------- 0 3.0 2.0 30 65
+ 0.289952 2 0 tcp 1000 ------- 0 2.0 3.0 35 66
- 0.289952 2 0 tcp 1000 ------- 0 2.0 3.0 35 66
r 0.291568 1 3 tcp 1000 ------- 0 2.0 3.0 31 58
+ 0.291568 3 1 ack 40 ------- 0 3.0 2.0 31 67
- 0.291568 3 1 ack 40 ------- 0 3.0 2.0 31 67
r 0.291752 2 0 tcp 1000 ------- 0 2.0 3.0 35 66
+ 0.291752 0 1 tcp 1000 ------- 0 2.0 3.0 35 66
r 0.2926 3 1 ack 40 ------- 0 3.0 2.0 31 67
+ 0.2926 1 0 ack 40 ------- 0 3.0 2.0 31 67
- 0.2926 1 0 ack 40 ------- 0 3.0 2.0 31 67
- 0.293768 0 1 tcp 1000 ------- 0 2.0 3.0 33 62
r 0.29692 1 0 ack 40 ------- 0 3.0 2.0 31 67
+ 0.29692 0 2 ack 40 ------- 0 3.0 2.0 31 67
- 0.29692 0 2 ack 40 ------- 0 3.0 2.0 31 67
r 0.297768 0 1 tcp 1000 ------- 0 2.0 3.0 32 60
+ 0.297768 1 3 tcp 1000 ------- 0 2.0 3.0 32 60
- 0.297768 1 3 tcp 1000 ------- 0 2.0 3.0 32 60
r 0.297952 0 2 ack 40 ------- 0 3.0 2.0 31 67
+ 0.297952 2 0 tcp 1000 ------- 0 2.0 3.0 36 68
- 0.297952 2 0 tcp 1000 ------- 0 2.0 3.0 36 68
r 0.299568 1 3 tcp 1000 ------- 0 2.0 3.0 32 60
+ 0.299568 3 1 ack 40 ------- 0 3.0 2.0 32 69
- 0.299568 3 1 ack 40 ------- 0 3.0 2.0 32 69
r 0.299752 2 0 tcp 1000 ------- 0 2.0 3.0 36 68
+ 0.299752 0 1 tcp 1000 ------- 0 2.0 3.0 36 68
r 0.3006 3 1 ack 40 ------- 0 3.0 2.0 32 69
+ 0.3006 1 0 ack 40 ------- 0 3.0 2.0 32 69
- 0.3006 1 0 ack 40 ------- 0 3.0 2.0 32 69
- 0.301768 0 1 tcp 1000 ------- 0 2.0 3.0 34 64
r 0.30492 1 0 ack 40 ------- 0 3.0 2.0 32 69
+ 0.30492 0 2 ack 40 ------- 0 3.0 2.0 32 69
- 0.30492 0 2 ack 40 ------- 0 3.0 2.0 32 69
r 0.305768 0 1 tcp 1000 ------- 0 2.0 3.0 33 62
+ 0.305768 1 3 tcp 1000 ------- 0 2.0 3.0 33 62
- 0.305768 1 3 tcp 1000 ------- 0 2.0 3.0 33 62
r 0.305952 0 2 ack 40 ------- 0 3.0 2.0 32 69
+ 0.305952 2 0 tcp 1000 ------- 0 2.0 3.0 37 70
- 0.305952 2 0 tcp 1000 ------- 0 2.0 3.0 37 70
r 0.307568 1 3 tcp 1000 ------- 0 2.0 3.0 33 62
+ 0.307568 3 1 ack 40 ------- 0 3.0 2.0 33 71
- 0.307568 3 1 ack 40 ------- 0 3.0 2.0 33 71
r 0.307752 2 0 tcp 1000 ------- 0 2.0 3.0 37 70
+ 0.307752 0 1 tcp 1000 ------- 0 2.0 3.0 37 70
r 0.3086 3 1 ack 40 ------- 0 3.0 2.0 33 71
+ 0.3086 1 0 ack 40 ------- 0 3.0 2.0 33 71
- 0.3086 1 0 ack 40 ------- 0 3.0 2.0 33 71
- 0.309768 0 1 tcp 1000 ------- 0 2.0 3.0 35 66
r 0.31292 1 0 ack 40 ------- 0 3.0 2.0 33 71
+ 0.31292 0 2 ack 40 ------- 0 3.0 2.0 33 71
- 0.31292 0 2 ack 40 ------- 0 3.0 2.0 33 71
r 0.313768 0 1 tcp 1000 ------- 0 2.0 3.0 34 64
+ 0.313768 1 3 tcp 1000 ------- 0 2.0 3.0 34 64
- 0.313768 1 3 tcp 1000 ------- 0 2.0 3.0 34 64
r 0.313952 0 2 ack 40 ------- 0 3.0 2.0 33 71
+ 0.313952 2 0 tcp 1000 ------- 0 2.0 3.0 38 72
- 0.313952 2 0 tcp 1000 ------- 0 2.0 3.0 38 72
r 0.315568 1 3 tcp 1000 ------- 0 2.0 3.0 34 64
+ 0.315568 3 1 ack 40 ------- 0 3.0 2.0 34 73
- 0.315568 3 1 ack 40 ------- 0 3.0 2.0 34 73
r 0.315752 2 0 tcp 1000 ------- 0 2.0 3.0 38 72
+ 0.315752 0 1 tcp 1000 ------- 0 2.0 3.0 38 72
r 0.3166 3 1 ack 40 ------- 0 3.0 2.0 34 73
+ 0.3166 1 0 ack 40 ------- 0 3.0 2.0 34 73
- 0.3166 1 0 ack 40 ------- 0 3.0 2.0 34 73
- 0.317768 0 1 tcp 1000 ------- 0 2.0 3.0 36 68
r 0.32092 1 0 ack 40 ------- 0 3.0 2.0 34 73
+ 0.32092 0 2 ack 40 ------- 0 3.0 2.0 34 73
- 0.32092 0 2 ack 40 ------- 0 3.0 2.0 34 73
r 0.321768 0 1 tcp 1000 ------- 0 2.0 3.0 35 66
+ 0.321768 1 3 tcp 1000 ------- 0 2.0 3.0 35 66
- 0.321768 1 3 tcp 1000 ------- 0 2.0 3.0 35 66