V -t * -v 1.0a5 -a 0
A -t * -n 1 -p 0 -o 0x7fffffff -c 30 -a 1
A -t * -h 1 -m 1073741823 -s 0
n -t * -a 0 -s 0 -S UP -v circle -c black -i black
n -t * -a 1 -s 1 -S UP -v circle -c black -i black
n -t * -a 2 -s 2 -S UP -v circle -c black -i black
n -t * -a 3 -s 3 -S UP -v circle -c black -i black
l -t * -s 2 -d 0 -S UP -r 10000000 -D 0.001 -c black
l -t * -s 0 -d 1 -S UP -r 1000000 -D 0.0040000000000000001 -c black
l -t * -s 1 -d 3 -S UP -r 10000000 -D 0.001 -c black
+ -t 0 -s 2 -d 0 -p tcp -e 40 -c 0 -i 0 -a 0 -x {2.0 3.0 0 ------- null}
- -t 0 -s 2 -d 0 -p tcp -e 40 -c 0 -i 0 -a 0 -x {2.0 3.0 0 ------- null}
h -t 0 -s 2 -d 0 -p tcp -e 40 -c 0 -i 0 -a 0 -x {2.0 3.0 -1 ------- null}
+ -t 0 -s 2 -d 0 -p tcp -e 1040 -c 0 -i 1 -a 0 -x {2.0 3.0 1 ------- null}
- -t 3.2e-05 -s 2 -d 0 -p tcp -e 1040 -c 0 -i 1 -a 0 -x {2.0 3.0 1 ------- null}
h -t 3.2e-05 -s 2 -d 0 -p tcp -e 1040 -c 0 -i 1 -a 0 -x {2.0 3.0 -1 ------- null}
r -t 0.001032 -s 2 -d 0 -p tcp -e 40 -c 0 -i 0 -a 0 -x {2.0 3.0 0 ------- null}
+ -t 0.001032 -s 0 -d 1 -p tcp -e 40 -c 0 -i 0 -a 0 -x {2.0 3.0 0 ------- null}
- -t 0.001032 -s 0 -d 1 -p tcp -e 40 -c 0 -i 0 -a 0 -x {2.0 3.0 0 ------- null}
h -t 0.001032 -s 0 -d 1 -p tcp -e 40 -c 0 -i 0 -a 0 -x {2.0 3.0 -1 ------- null}
r -t 0.001864 -s 2 -d 0 -p tcp -e 1040 -c 0 -i 1 -a 0 -x {2.0 3.0 1 ------- null}
+ -t 0.001864 -s 0 -d 1 -p tcp -e 1040 -c 0 -i 1 -a 0 -x {2.0 3.0 1 ------- null}
- -t 0.001864 -s 0 -d 1 -p tcp -e 1040 -c 0 -i 1 -a 0 -x {2.0 3.0 1 ------- null}
h -t 0.001864 -s 0 -d 1 -p tcp -e 1040 -c 0 -i 1 -a 0 -x {2.0 3.0 -1 ------- null}
r -t 0.005352 -s 0 -d 1 -p tcp -e 40 -c 0 -i 0 -a 0 -x {2.0 3.0 0 ------- null}
+ -t 0.005352 -s 1 -d 3 -p tcp -e 40 -c 0 -i 0 -a 0 -x {2.0 3.0 0 ------- null}
- -t 0.005352 -s 1 -d 3 -p tcp -e 40 -c 0 -i 0 -a 0 -x {2.0 3.0 0 ------- null}
h -t 0.005352 -s 1 -d 3 -p tcp -e 40 -c 0 -i 0 -a 0 -x {2.0 3.0 -1 ------- null}
r -t 0.006384 -s 1 -d 3 -p tcp -e 40 -c 0 -i 0 -a 0 -x {2.0 3.0 0 ------- null}
+ -t 0.006384 -s 3 -d 1 -p ack -e 40 -c 0 -i 2 -a 0 -x {3.0 2.0 0 ------- null}
- -t 0.006384 -s 3 -d 1 -p ack -e 40 -c 0 -i 2 -a 0 -x {3.0 2.0 0 ------- null}
h -t 0.006384 -s 3 -d 1 -p ack -e 40 -c 0 -i 2 -a 0 -x {3.0 2.0 -1 ------- null}
r -t 0.007416 -s 3 -d 1 -p ack -e 40 -c 0 -i 2 -a 0 -x {3.0 2.0 0 ------- null}
+ -t 0.007416 -s 1 -d 0 -p ack -e 40 -c 0 -i 2 -a 0 -x {3.0 2.0 0 ------- null}
- -t 0.007416 -s 1 -d 0 -p ack -e 40 -c 0 -i 2 -a 0 -x {3.0 2.0 0 ------- null}
h -t 0.007416 -s 1 -d 0 -p ack -e 40 -c 0 -i 2 -a 0 -x {3.0 2.0 -1 ------- null}
r -t 0.011736 -s 1 -d 0 -p ack -e 40 -c 0 -i 2 -a 0 -x {3.0 2.0 0 ------- null}
+ -t 0.011736 -s 0 -d 2 -p ack -e 40 -c 0 -i 2 -a 0 -x {3.0 2.0 0 ------- null}
- -t 0.011736 -s 0 -d 2 -p ack -e 40 -c 0 -i 2 -a 0 -x {3.0 2.0 0 ------- null}
h -t 0.011736 -s 0 -d 2 -p ack -e 40 -c 0 -i 2 -a 0 -x {3.0 2.0 -1 ------- null}
r -t 0.012768 -s 0 -d 2 -p ack -e 40 -c 0 -i 2 -a 0 -x {3.0 2.0 0 ------- null}
+ -t 0.012768 -s 2 -d 0 -p tcp -e 1040 -c 0 -i 3 -a 0 -x {2.0 3.0 2 ------- null}
- -t 0.012768 -s 2 -d 0 -p tcp -e 1040 -c 0 -i 3 -a 0 -x {2.0 3.0 2 ------- null}
h -t 0.012768 -s 2 -d 0 -p tcp -e 1040 -c 0 -i 3 -a 0 -x {2.0 3.0 -1 ------- null}
+ -t 0.012768 -s 2 -d 0 -p tcp -e 1040 -c 0 -i 4 -a 0 -x {2.0 3.0 3 ------- null}
- -t 0.0136 -s 2 -d 0 -p tcp -e 1040 -c 0 -i 4 -a 0 -x {2.0 3.0 3 ------- null}
h -t 0.0136 -s 2 -d 0 -p tcp -e 1040 -c 0 -i 4 -a 0 -x {2.0 3.0 -1 ------- null}
r -t 0.014184 -s 0 -d 1 -p tcp -e 1040 -c 0 -i 1 -a 0 -x {2.0 3.0 1 ------- null}
+ -t 0.014184 -s 1 -d 3 -p tcp -e 1040 -c 0 -i 1 -a 0 -x {2.0 3.0 1 ------- null}
- -t 0.014184 -s 1 -d 3 -p tcp -e 1040 -c 0 -i 1 -a 0 -x {2.0 3.0 1 ------- null}
h -t 0.014184 -s 1 -d 3 -p tcp -e 1040 -c 0 -i 1 -a 0 -x {2.0 3.0 -1 ------- null}
r -t 0.0146 -s 2 -d 0 -p tcp -e 1040 -c 0 -i 3 -a 0 -x {2.0 3.0 2 ------- null}
+ -t 0.0146 -s 0 -d 1 -p tcp -e 1040 -c 0 -i 3 -a 0 -x {2.0 3.0 2 ------- null}
- -t 0.0146 -s 0 -d 1 -p tcp -e 1040 -c 0 -i 3 -a 0 -x {2.0 3.0 2 ------- null}
h -t 0.0146 -s 0 -d 1 -p tcp -e 1040 -c 0 -i 3 -a 0 -x {2.0 3.0 -1 ------- null}
r -t 0.015432 -s 2 -d 0 -p tcp -e 1040 -c 0 -i 4 -a 0 -x {2.0 3.0 3 ------- null}
+ -t 0.015432 -s 0 -d 1 -p tcp -e 1040 -c 0 -i 4 -a 0 -x {2.0 3.0 3 ------- null}
r -t 0.016016 -s 1 -d 3 -p tcp -e 1040 -c 0 -i 1 -a 0 -x {2.0 3.0 1 ------- null}
+ -t 0.016016 -s 3 -d 1 -p ack -e 40 -c 0 -i 5 -a 0 -x {3.0 2.0 1 ------- null}
- -t 0.016016 -s 3 -d 1 -p ack -e 40 -c 0 -i 5 -a 0 -x {3.0 2.0 1 ------- null}
h -t 0.016016 -s 3 -d 1 -p ack -e 40 -c 0 -i 5 -a 0 -x {3.0 2.0 -1 ------- null}
r -t 0.017048 -s 3 -d 1 -p ack -e 40 -c 0 -i 5 -a 0 -x {3.0 2.0 1 ------- null}
+ -t 0.017048 -s 1 -d 0 -p ack -e 40 -c 0 -i 5 -a 0 -x {3.0 2.0 1 ------- null}
- -t 0.017048 -s 1 -d 0 -p ack -e 40 -c 0 -i 5 -a 0 -x {3.0 2.0 1 ------- null}
h -t 0.017048 -s 1 -d 0 -p ack -e 40 -c 0 -i 5 -a 0 -x {3.0 2.0 -1 ------- null}
r -t 0.021368 -s 1 -d 0 -p ack -e 40 -c 0 -i 5 -a 0 -x {3.0 2.0 1 ------- null}
+ -t 0.021368 -s 0 -d 2 -p ack -e 40 -c 0 -i 5 -a 0 -x {3.0 2.0 1 ------- null}
- -t 0.021368 -s 0 -d 2 -p ack -e 40 -c 0 -i 5 -a 0 -x {3.0 2.0 1 ------- null}
h -t 0.021368 -s 0 -d 2 -p ack -e 40 -c 0 -i 5 -a 0 -x {3.0 2.0 -1 ------- null}
r -t 0.0224 -s 0 -d 2 -p ack -e 40 -c 0 -i 5 -a 0 -x {3.0 2.0 1 ------- null}
+ -t 0.0224 -s 2 -d 0 -p tcp -e 1040 -c 0 -i 6 -a 0 -x {2.0 3.0 4 ------- null}
- -t 0.0224 -s 2 -d 0 -p tcp -e 1040 -c 0 -i 6 -a 0 -x {2.0 3.0 4 ------- null}
h -t 0.0224 -s 2 -d 0 -p tcp -e 1040 -c 0 -i 6 -a 0 -x {2.0 3.0 -1 ------- null}
+ -t 0.0224 -s 2 -d 0 -p tcp -e 1040 -c 0 -i 7 -a 0 -x {2.0 3.0 5 ------- null}
- -t 0.02292 -s 0 -d 1 -p tcp -e 1040 -c 0 -i 4 -a 0 -x {2.0 3.0 3 ------- null}
h -t 0.02292 -s 0 -d 1 -p tcp -e 1040 -c 0 -i 4 -a 0 -x {2.0 3.0 -1 ------- null}
- -t 0.023232 -s 2 -d 0 -p tcp -e 1040 -c 0 -i 7 -a 0 -x {2.0 3.0 5 ------- null}
h -t 0.023232 -s 2 -d 0 -p tcp -e 1040 -c 0 -i 7 -a 0 -x {2.0 3.0 -1 ------- null}
r -t 0.024232 -s 2 -d 0 -p tcp -e 1040 -c 0 -i 6 -a 0 -x {2.0 3.0 4 ------- null}
+ -t 0.024232 -s 0 -d 1 -p tcp -e 1040 -c 0 -i 6 -a 0 -x {2.0 3.0 4 ------- null}
r -t 0.025064 -s 2 -d 0 -p tcp -e 1040 -c 0 -i 7 -a 0 -x {2.0 3.0 5 ------- null}
+ -t 0.025064 -s 0 -d 1 -p tcp -e 1040 -c 0 -i 7 -a 0 -x {2.0 3.0 5 ------- null}
r -t 0.02692 -s 0 -d 1 -p tcp -e 1040 -c 0 -i 3 -a 0 -x {2.0 3.0 2 ------- null}
+ -t 0.02692 -s 1 -d 3 -p tcp -e 1040 -c 0 -i 3 -a 0 -x {2.0 3.0 2 ------- null}
- -t 0.02692 -s 1 -d 3 -p tcp -e 1040 -c 0 -i 3 -a 0 -x {2.0 3.0 2 ------- null}
h -t 0.02692 -s 1 -d 3 -p tcp -e 1040 -c 0 -i 3 -a 0 -x {2.0 3.0 -1 ------- null}
r -t 0.028752 -s 1 -d 3 -p tcp -e 1040 -c 0 -i 3 -a 0 -x {2.0 3.0 2 ------- null}
+ -t 0.028752 -s 3 -d 1 -p ack -e 40 -c 0 -i 8 -a 0 -x {3.0 2.0 2 ------- null}
- -t 0.028752 -s 3 -d 1 -p ack -e 40 -c 0 -i 8 -a 0 -x {3.0 2.0 2 ------- null}
h -t 0.028752 -s 3 -d 1 -p ack -e 40 -c 0 -i 8 -a 0 -x {3.0 2.0 -1 ------- null}
r -t 0.029784 -s 3 -d 1 -p ack -e 40 -c 0 -i 8 -a 0 -x {3.0 2.0 2 ------- null}
+ -t 0.029784 -s 1 -d 0 -p ack -e 40 -c 0 -i 8 -a 0 -x {3.0 2.0 2 ------- null}
- -t 0.029784 -s 1 -d 0 -p ack -e 40 -c 0 -i 8 -a 0 -x {3.0 2.0 2 ------- null}
h -t 0.029784 -s 1 -d 0 -p ack -e 40 -c 0 -i 8 -a 0 -x {3.0 2.0 -1 ------- null}
- -t 0.03124 -s 0 -d 1 -p tcp -e 1040 -c 0 -i 6 -a 0 -x {2.0 3.0 4 ------- null}
h -t 0.03124 -s 0 -d 1 -p tcp -e 1040 -c 0 -i 6 -a 0 -x {2.0 3.0 -1 ------- null}
r -t 0.034104 -s 1 -d 0 -p ack -e 40 -c 0 -i 8 -a 0 -x {3.0 2.0 2 ------- null}
+ -t 0.034104 -s 0 -d 2 -p ack -e 40 -c 0 -i 8 -a 0 -x {3.0 2.0 2 ------- null}
- -t 0.034104 -s 0 -d 2 -p ack -e 40 -c 0 -i 8 -a 0 -x {3.0 2.0 2 ------- null}
h -t 0.034104 -s 0 -d 2 -p ack -e 40 -c 0 -i 8 -a 0 -x {3.0 2.0 -1 ------- null}
r -t 0.035136 -s 0 -d 2 -p ack -e 40 -c 0 -i 8 -a 0 -x {3.0 2.0 2 ------- null}
+ -t 0.035136 -s 2 -d 0 -p tcp -e 1040 -c 0 -i 9 -a 0 -x {2.0 3.0 6 ------- null}
- -t 0.035136 -s 2 -d 0 -p tcp -e 1040 -c 0 -i 9 -a 0 -x {2.0 3.0 6 ------- null}
h -t 0.035136 -s 2 -d 0 -p tcp -e 1040 -c 0 -i 9 -a 0 -x {2.0 3.0 -1 ------- null}
+ -t 0.035136 -s 2 -d 0 -p tcp -e 1040 -c 0 -i 10 -a 0 -x {2.0 3.0 7 ------- null}
r -t 0.03524 -s 0 -d 1 -p tcp -e 1040 -c 0 -i 4 -a 0 -x {2.0 3.0 3 ------- null}
+ -t 0.03524 -s 1 -d 3 -p tcp -e 1040 -c 0 -i 4 -a 0 -x {2.0 3.0 3 ------- null}
- -t 0.03524 -s 1 -d 3 -p tcp -e 1040 -c 0 -i 4 -a 0 -x {2.0 3.0 3 ------- null}
h -t 0.03524 -s 1 -d 3 -p tcp -e 1040 -c 0 -i 4 -a 0 -x {2.0 3.0 -1 ------- null}
- -t 0.035968 -s 2 -d 0 -p tcp -e 1040 -c 0 -i 10 -a 0 -x {2.0 3.0 7 ------- null}
h -t 0.035968 -s 2 -d 0 -p tcp -e 1040 -c 0 -i 10 -a 0 -x {2.0 3.0 -1 ------- null}
r -t 0.036968 -s 2 -d 0 -p tcp -e 1040 -c 0 -i 9 -a 0 -x {2.0 3.0 6 ------- null}
+ -t 0.036968 -s 0 -d 1 -p tcp -e 1040 -c 0 -i 9 -a 0 -x {2.0 3.0 6 ------- null}
r -t 0.037072 -s 1 -d 3 -p tcp -e 1040 -c 0 -i 4 -a 0 -x {2.0 3.0 3 ------- null}
+ -t 0.037072 -s 3 -d 1 -p ack -e 40 -c 0 -i 11 -a 0 -x {3.0 2.0 3 ------- null}
- -t 0.037072 -s 3 -d 1 -p ack -e 40 -c 0 -i 11 -a 0 -x {3.0 2.0 3 ------- null}
h -t 0.037072 -s 3 -d 1 -p ack -e 40 -c 0 -i 11 -a 0 -x {3.0 2.0 -1 ------- null}
r -t 0.0378 -s 2 -d 0 -p tcp -e 1040 -c 0 -i 10 -a 0 -x {2.0 3.0 7 ------- null}
+ -t 0.0378 -s 0 -d 1 -p tcp -e 1040 -c 0 -i 10 -a 0 -x {2.0 3.0 7 ------- null}
r -t 0.038104 -s 3 -d 1 -p ack -e 40 -c 0 -i 11 -a 0 -x {3.0 2.0 3 ------- null}
+ -t 0.038104 -s 1 -d 0 -p ack -e 40 -c 0 -i 11 -a 0 -x {3.0 2.0 3 ------- null}
- -t 0.038104 -s 1 -d 0 -p ack -e 40 -c 0 -i 11 -a 0 -x {3.0 2.0 3 ------- null}
h -t 0.038104 -s 1 -d 0 -p ack -e 40 -c 0 -i 11 -a 0 -x {3.0 2.0 -1 ------- null}
- -t 0.03956 -s 0 -d 1 -p tcp -e 1040 -c 0 -i 7 -a 0 -x {2.0 3.0 5 ------- null}
h -t 0.03956 -s 0 -d 1 -p tcp -e 1040 -c 0 -i 7 -a 0 -x {2.0 3.0 -1 ------- null}
r -t 0.042424 -s 1 -d 0 -p ack -e 40 -c 0 -i 11 -a 0 -x {3.0 2.0 3 ------- null}
+ -t 0.042424 -s 0 -d 2 -p ack -e 40 -c 0 -i 11 -a 0 -x {3.0 2.0 3 ------- null}
- -t 0.042424 -s 0 -d 2 -p ack -e 40 -c 0 -i 11 -a 0 -x {3.0 2.0 3 ------- null}
h -t 0.042424 -s 0 -d 2 -p ack -e 40 -c 0 -i 11 -a 0 -x {3.0 2.0 -1 ------- null}
r -t 0.043456 -s 0 -d 2 -p ack -e 40 -c 0 -i 11 -a 0 -x {3.0 2.0 3 ------- null}
+ -t 0.043456 -s 2 -d 0 -p tcp -e 1040 -c 0 -i 12 -a 0 -x {2.0 3.0 8 ------- null}
- -t 0.043456 -s 2 -d 0 -p tcp -e 1040 -c 0 -i 12 -a 0 -x {2.0 3.0 8 ------- null}
h -t 0.043456 -s 2 -d 0 -p tcp -e 1040 -c 0 -i 12 -a 0 -x {2.0 3.0 -1 ------- null}
+ -t 0.043456 -s 2 -d 0 -p tcp -e 1040 -c 0 -i 13 -a 0 -x {2.0 3.0 9 ------- null}
r -t 0.04356 -s 0 -d 1 -p tcp -e 1040 -c 0 -i 6 -a 0 -x {2.0 3.0 4 ------- null}
+ -t 0.04356 -s 1 -d 3 -p tcp -e 1040 -c 0 -i 6 -a 0 -x {2.0 3.0 4 ------- null}
- -t 0.04356 -s 1 -d 3 -p tcp -e 1040 -c 0 -i 6 -a 0 -x {2.0 3.0 4 ------- null}
h -t 0.04356 -s 1 -d 3 -p tcp -e 1040 -c 0 -i 6 -a 0 -x {2.0 3.0 -1 ------- null}
- -t 0.044288 -s 2 -d 0 -p tcp -e 1040 -c 0 -i 13 -a 0 -x {2.0 3.0 9 ------- null}
h -t 0.044288 -s 2 -d 0 -p tcp -e 1040 -c 0 -i 13 -a 0 -x {2.0 3.0 -1 ------- null}
r -t 0.045288 -s 2 -d 0 -p tcp -e 1040 -c 0 -i 12 -a 0 -x {2.0 3.0 8 ------- null}
+ -t 0.045288 -s 0 -d 1 -p tcp -e 1040 -c 0 -i 12 -a 0 -x {2.0 3.0 8 ------- null}
r -t 0.045392 -s 1 -d 3 -p tcp -e 1040 -c 0 -i 6 -a 0 -x {2.0 3.0 4 ------- null}
+ -t 0.045392 -s 3 -d 1 -p ack -e 40 -c 0 -i 14 -a 0 -x {3.0 2.0 4 ------- null}
- -t 0.045392 -s 3 -d 1 -p ack -e 40 -c 0 -i 14 -a 0 -x {3.0 2.0 4 ------- null}
h -t 0.045392 -s 3 -d 1 -p ack -e 40 -c 0 -i 14 -a 0 -x {3.0 2.0 -1 ------- null}
r -t 0.04612 -s 2 -d 0 -p tcp -e 1040 -c 0 -i 13 -a 0 -x {2.0 3.0 9 ------- null}
+ -t 0.04612 -s 0 -d 1 -p tcp -e 1040 -c 0 -i 13 -a 0 -x {2.0 3.0 9 ------- null}
r -t 0.046424 -s 3 -d 1 -p ack -e 40 -c 0 -i 14 -a 0 -x {3.0 2.0 4 ------- null}
+ -t 0.046424 -s 1 -d 0 -p ack -e 40 -c 0 -i 14 -a 0 -x {3.0 2.0 4 ------- null}
- -t 0.046424 -s 1 -d 0 -p ack -e 40 -c 0 -i 14 -a 0 -x {3.0 2.0 4 ------- null}
h -t 0.046424 -s 1 -d 0 -p ack -e 40 -c 0 -i 14 -a 0 -x {3.0 2.0 -1 ------- null}
- -t 0.04788 -s 0 -d 1 -p tcp -e 1040 -c 0 -i 9 -a 0 -x {2.0 3.0 6 ------- null}
h -t 0.04788 -s 0 -d 1 -p tcp -e 1040 -c 0 -i 9 -a 0 -x {2.0 3.0 -1 ------- null}
r -t 0.050744 -s 1 -d 0 -p ack -e 40 -c 0 -i 14 -a 0 -x {3.0 2.0 4 ------- null}
+ -t 0.050744 -s 0 -d 2 -p ack -e 40 -c 0 -i 14 -a 0 -x {3.0 2.0 4 ------- null}
- -t 0.050744 -s 0 -d 2 -p ack -e 40 -c 0 -i 14 -a 0 -x {3.0 2.0 4 ------- null}
h -t 0.050744 -s 0 -d 2 -p ack -e 40 -c 0 -i 14 -a 0 -x {3.0 2.0 -1 ------- null}
r -t 0.051776 -s 0 -d 2 -p ack -e 40 -c 0 -i 14 -a 0 -x {3.0 2.0 4 ------- null}
+ -t 0.051776 -s 2 -d 0 -p tcp -e 1040 -c 0 -i 15 -a 0 -x {2.0 3.0 10 ------- null}
- -t 0.051776 -s 2 -d 0 -p tcp -e 1040 -c 0 -i 15 -a 0 -x {2.0 3.0 10 ------- null}
h -t 0.051776 -s 2 -d 0 -p tcp -e 1040 -c 0 -i 15 -a 0 -x {2.0 3.0 -1 ------- null}
+ -t 0.051776 -s 2 -d 0 -p tcp -e 1040 -c 0 -i 16 -a 0 -x {2.0 3.0 11 ------- null}
r -t 0.05188 -s 0 -d 1 -p tcp -e 1040 -c 0 -i 7 -a 0 -x {2.0 3.0 5 ------- null}
+ -t 0.05188 -s 1 -d 3 -p tcp -e 1040 -c 0 -i 7 -a 0 -x {2.0 3.0 5 ------- null}
- -t 0.05188 -s 1 -d 3 -p tcp -e 1040 -c 0 -i 7 -a 0 -x {2.0 3.0 5 ------- null}
h -t 0.05188 -s 1 -d 3 -p tcp -e 1040 -c 0 -i 7 -a 0 -x {2.0 3.0 -1 ------- null}
- -t 0.052608 -s 2 -d 0 -p tcp -e 1040 -c 0 -i 16 -a 0 -x {2.0 3.0 11 ------- null}
h -t 0.052608 -s 2 -d 0 -p tcp -e 1040 -c 0 -i 16 -a 0 -x {2.0 3.0 -1 ------- null}
r -t 0.053608 -s 2 -d 0 -p tcp -e 1040 -c 0 -i 15 -a 0 -x {2.0 3.0 10 ------- null}
+ -t 0.053608 -s 0 -d 1 -p tcp -e 1040 -c 0 -i 15 -a 0 -x {2.0 3.0 10 ------- null}
r -t 0.053712 -s 1 -d 3 -p tcp -e 1040 -c 0 -i 7 -a 0 -x {2.0 3.0 5 ------- null}
+ -t 0.053712 -s 3 -d 1 -p ack -e 40 -c 0 -i 17 -a 0 -x {3.0 2.0 5 ------- null}
- -t 0.053712 -s 3 -d 1 -p ack -e 40 -c 0 -i 17 -a 0 -x {3.0 2.0 5 ------- null}
h -t 0.053712 -s 3 -d 1 -p ack -e 40 -c 0 -i 17 -a 0 -x {3.0 2.0 -1 ------- null}
r -t 0.05444 -s 2 -d 0 -p tcp -e 1040 -c 0 -i 16 -a 0 -x {2.0 3.0 11 ------- null}
+ -t 0.05444 -s 0 -d 1 -p tcp -e 1040 -c 0 -i 16 -a 0 -x {2.0 3.0 11 ------- null}
r -t 0.054744 -s 3 -d 1 -p ack -e 40 -c 0 -i 17 -a 0 -x {3.0 2.0 5 ------- null}
+ -t 0.054744 -s 1 -d 0 -p ack -e 40 -c 0 -i 17 -a 0 -x {3.0 2.0 5 ------- null}
- -t 0.054744 -s 1 -d 0 -p ack -e 40 -c 0 -i 17 -a 0 -x {3.0 2.0 5 ------- null}
h -t 0.054744 -s 1 -d 0 -p ack -e 40 -c 0 -i 17 -a 0 -x {3.0 2.0 -1 ------- null}
- -t 0.0562 -s 0 -d 1 -p tcp -e 1040 -c 0 -i 10 -a 0 -x {2.0 3.0 7 ------- null}
h -t 0.0562 -s 0 -d 1 -p tcp -e 1040 -c 0 -i 10 -a 0 -x {2.0 3.0 -1 ------- null}
r -t 0.059064 -s 1 -d 0 -p ack -e 40 -c 0 -i 17 -a 0 -x {3.0 2.0 5 ------- null}
+ -t 0.059064 -s 0 -d 2 -p ack -e 40 -c 0 -i 17 -a 0 -x {3.0 2.0 5 ------- null}
- -t 0.059064 -s 0 -d 2 -p ack -e 40 -c 0 -i 17 -a 0 -x {3.0 2.0 5 ------- null}
h -t 0.059064 -s 0 -d 2 -p ack -e 40 -c 0 -i 17 -a 0 -x {3.0 2.0 -1 ------- null}
r -t 0.060096 -s 0 -d 2 -p ack -e 40 -c 0 -i 17 -a 0 -x {3.0 2.0 5 ------- null}
+ -t 0.060096 -s 2 -d 0 -p tcp -e 1040 -c 0 -i 18 -a 0 -x {2.0 3.0 12 ------- null}
- -t 0.060096 -s 2 -d 0 -p tcp -e 1040 -c 0 -i 18 -a 0 -x {2.0 3.0 12 ------- null}
h -t 0.060096 -s 2 -d 0 -p tcp -e 1040 -c 0 -i 18 -a 0 -x {2.0 3.0 -1 ------- null}
+ -t 0.060096 -s 2 -d 0 -p tcp -e 1040 -c 0 -i 19 -a 0 -x {2.0 3.0 13 ------- null}
r -t 0.0602 -s 0 -d 1 -p tcp -e 1040 -c 0 -i 9 -a 0 -x {2.0 3.0 6 ------- null}
+ -t 0.0602 -s 1 -d 3 -p tcp -e 1040 -c 0 -i 9 -a 0 -x {2.0 3.0 6 ------- null}
- -t 0.0602 -s 1 -d 3 -p tcp -e 1040 -c 0 -i 9 -a 0 -x {2.0 3.0 6 ------- null}
h -t 0.0602 -s 1 -d 3 -p tcp -e 1040 -c 0 -i 9 -a 0 -x {2.0 3.0 -1 ------- null}
- -t 0.060928 -s 2 -d 0 -p tcp -e 1040 -c 0 -i 19 -a 0 -x {2.0 3.0 13 ------- null}
h -t 0.060928 -s 2 -d 0 -p tcp -e 1040 -c 0 -i 19 -a 0 -x {2.0 3.0 -1 ------- null}
r -t 0.061928 -s 2 -d 0 -p tcp -e 1040 -c 0 -i 18 -a 0 -x {2.0 3.0 12 ------- null}
+ -t 0.061928 -s 0 -d 1 -p tcp -e 1040 -c 0 -i 18 -a 0 -x {2.0 3.0 12 ------- null}
r -t 0.062032 -s 1 -d 3 -p tcp -e 1040 -c 0 -i 9 -a 0 -x {2.0 3.0 6 ------- null}
+ -t 0.062032 -s 3 -d 1 -p ack -e 40 -c 0 -i 20 -a 0 -x {3.0 2.0 6 ------- null}
- -t 0.062032 -s 3 -d 1 -p ack -e 40 -c 0 -i 20 -a 0 -x {3.0 2.0 6 ------- null}
h -t 0.062032 -s 3 -d 1 -p ack -e 40 -c 0 -i 20 -a 0 -x {3.0 2.0 -1 ------- null}
r -t 0.06276 -s 2 -d 0 -p tcp -e 1040 -c 0 -i 19 -a 0 -x {2.0 3.0 13 ------- null}
+ -t 0.06276 -s 0 -d 1 -p tcp -e 1040 -c 0 -i 19 -a 0 -x {2.0 3.0 13 ------- null}
r -t 0.063064 -s 3 -d 1 -p ack -e 40 -c 0 -i 20 -a 0 -x {3.0 2.0 6 ------- null}
+ -t 0.063064 -s 1 -d 0 -p ack -e 40 -c 0 -i 20 -a 0 -x {3.0 2.0 6 ------- null}
- -t 0.063064 -s 1 -d 0 -p ack -e 40 -c 0 -i 20 -a 0 -x {3.0 2.0 6 ------- null}
h -t 0.063064 -s 1 -d 0 -p ack -e 40 -c 0 -i 20 -a 0 -x {3.0 2.0 -1 ------- null}
- -t 0.06452 -s 0 -d 1 -p tcp -e 1040 -c 0 -i 12 -a 0 -x {2.0 3.0 8 ------- null}
h -t 0.06452 -s 0 -d 1 -p tcp -e 1040 -c 0 -i 12 -a 0 -x {2.0 3.0 -1 ------- null}
r -t 0.067384 -s 1 -d 0 -p ack -e 40 -c 0 -i 20 -a 0 -x {3.0 2.0 6 ------- null}
+ -t 0.067384 -s 0 -d 2 -p ack -e 40 -c 0 -i 20 -a 0 -x {3.0 2.0 6 ------- null}
- -t 0.067384 -s 0 -d 2 -p ack -e 40 -c 0 -i 20 -a 0 -x {3.0 2.0 6 ------- null}
h -t 0.067384 -s 0 -d 2 -p ack -e 40 -c 0 -i 20 -a 0 -x {3.0 2.0 -1 ------- null}
r -t 0.068416 -s 0 -d 2 -p ack -e 40 -c 0 -i 20 -a 0 -x {3.0 2.0 6 ------- null}
+ -t 0.068416 -s 2 -d 0 -p tcp -e 1040 -c 0 -i 21 -a 0 -x {2.0 3.0 14 ------- null}
- -t 0.068416 -s 2 -d 0 -p tcp -e 1040 -c 0 -i 21 -a 0 -x {2.0 3.0 14 ------- null}
h -t 0.068416 -s 2 -d 0 -p tcp -e 1040 -c 0 -i 21 -a 0 -x {2.0 3.0 -1 ------- null}
+ -t 0.068416 -s 2 -d 0 -p tcp -e 1040 -c 0 -i 22 -a 0 -x {2.0 3.0 15 ------- null}
r -t 0.06852 -s 0 -d 1 -p tcp -e 1040 -c 0 -i 10 -a 0 -x {2.0 3.0 7 ------- null}
+ -t 0.06852 -s 1 -d 3 -p tcp -e 1040 -c 0 -i 10 -a 0 -x {2.0 3.0 7 ------- null}
- -t 0.06852 -s 1 -d 3 -p tcp -e 1040 -c 0 -i 10 -a 0 -x {2.0 3.0 7 ------- null}
h -t 0.06852 -s 1 -d 3 -p tcp -e 1040 -c 0 -i 10 -a 0 -x {2.0 3.0 -1 ------- null}
- -t 0.069248 -s 2 -d 0 -p tcp -e 1040 -c 0 -i 22 -a 0 -x {2.0 3.0 15 ------- null}
h -t 0.069248 -s 2 -d 0 -p tcp -e 1040 -c 0 -i 22 -a 0 -x {2.0 3.0 -1 ------- null}
r -t 0.070248 -s 2 -d 0 -p tcp -e 1040 -c 0 -i 21 -a 0 -x {2.0 3.0 14 ------- null}
+ -t 0.070248 -s 0 -d 1 -p tcp -e 1040 -c 0 -i 21 -a 0 -x {2.0 3.0 14 ------- null}
r -t 0.070352 -s 1 -d 3 -p tcp -e 1040 -c 0 -i 10 -a 0 -x {2.0 3.0 7 ------- null}
+ -t 0.070352 -s 3 -d 1 -p ack -e 40 -c 0 -i 23 -a 0 -x {3.0 2.0 7 ------- null}
- -t 0.070352 -s 3 -d 1 -p ack -e 40 -c 0 -i 23 -a 0 -x {3.0 2.0 7 ------- null}
h -t 0.070352 -s 3 -d 1 -p ack -e 40 -c 0 -i 23 -a 0 -x {3.0 2.0 -1 ------- null}
r -t 0.07108 -s 2 -d 0 -p tcp -e 1040 -c 0 -i 22 -a 0 -x {2.0 3.0 15 ------- null}
+ -t 0.07108 -s 0 -d 1 -p tcp -e 1040 -c 0 -i 22 -a 0 -x {2.0 3.0 15 ------- null}
r -t 0.071384 -s 3 -d 1 -p ack -e 40 -c 0 -i 23 -a 0 -x {3.0 2.0 7 ------- null}
+ -t 0.071384 -s 1 -d 0 -p ack -e 40 -c 0 -i 23 -a 0 -x {3.0 2.0 7 ------- null}
- -t 0.071384 -s 1 -d 0 -p ack -e 40 -c 0 -i 23 -a 0 -x {3.0 2.0 7 ------- null}
h -t 0.071384 -s 1 -d 0 -p ack -e 40 -c 0 -i 23 -a 0 -x {3.0 2.0 -1 ------- null}
- -t 0.07284 -s 0 -d 1 -p tcp -e 1040 -c 0 -i 13 -a 0 -x {2.0 3.0 9 ------- null}
h -t 0.07284 -s 0 -d 1 -p tcp -e 1040 -c 0 -i 13 -a 0 -x {2.0 3.0 -1 ------- null}
r -t 0.075704 -s 1 -d 0 -p ack -e 40 -c 0 -i 23 -a 0 -x {3.0 2.0 7 ------- null}
+ -t 0.075704 -s 0 -d 2 -p ack -e 40 -c 0 -i 23 -a 0 -x {3.0 2.0 7 ------- null}
- -t 0.075704 -s 0 -d 2 -p ack -e 40 -c 0 -i 23 -a 0 -x {3.0 2.0 7 ------- null}
h -t 0.075704 -s 0 -d 2 -p ack -e 40 -c 0 -i 23 -a 0 -x {3.0 2.0 -1 ------- null}
r -t 0.076736 -s 0 -d 2 -p ack -e 40 -c 0 -i 23 -a 0 -x {3.0 2.0 7 ------- null}
+ -t 0.076736 -s 2 -d 0 -p tcp -e 1040 -c 0 -i 24 -a 0 -x {2.0 3.0 16 ------- null}
- -t 0.076736 -s 2 -d 0 -p tcp -e 1040 -c 0 -i 24 -a 0 -x {2.0 3.0 16 ------- null}
h -t 0.076736 -s 2 -d 0 -p tcp -e 1040 -c 0 -i 24 -a 0 -x {2.0 3.0 -1 ------- null}
+ -t 0.076736 -s 2 -d 0 -p tcp -e 1040 -c 0 -i 25 -a 0 -x {2.0 3.0 17 ------- null}
r -t 0.07684 -s 0 -d 1 -p tcp -e 1040 -c 0 -i 12 -a 0 -x {2.0 3.0 8 ------- null}
+ -t 0.07684 -s 1 -d 3 -p tcp -e 1040 -c 0 -i 12 -a 0 -x {2.0 3.0 8 ------- null}
- -t 0.07684 -s 1 -d 3 -p tcp -e 1040 -c 0 -i 12 -a 0 -x {2.0 3.0 8 ------- null}
h -t 0.07684 -s 1 -d 3 -p tcp -e 1040 -c 0 -i 12 -a 0 -x {2.0 3.0 -1 ------- null}
- -t 0.077568 -s 2 -d 0 -p tcp -e 1040 -c 0 -i 25 -a 0 -x {2.0 3.0 17 ------- null}
h -t 0.077568 -s 2 -d 0 -p tcp -e 1040 -c 0 -i 25 -a 0 -x {2.0 3.0 -1 ------- null}
r -t 0.078568 -s 2 -d 0 -p tcp -e 1040 -c 0 -i 24 -a 0 -x {2.0 3.0 16 ------- null}
+ -t 0.078568 -s 0 -d 1 -p tcp -e 1040 -c 0 -i 24 -a 0 -x {2.0 3.0 16 ------- null}
r -t 0.078672 -s 1 -d 3 -p tcp -e 1040 -c 0 -i 12 -a 0 -x {2.0 3.0 8 ------- null}
+ -t 0.078672 -s 3 -d 1 -p ack -e 40 -c 0 -i 26 -a 0 -x {3.0 2.0 8 ------- null}
- -t 0.078672 -s 3 -d 1 -p ack -e 40 -c 0 -i 26 -a 0 -x {3.0 2.0 8 ------- null}
h -t 0.078672 -s 3 -d 1 -p ack -e 40 -c 0 -i 26 -a 0 -x {3.0 2.0 -1 ------- null}
r -t 0.0794 -s 2 -d 0 -p tcp -e 1040 -c 0 -i 25 -a 0 -x {2.0 3.0 17 ------- null}
+ -t 0.0794 -s 0 -d 1 -p tcp -e 1040 -c 0 -i 25 -a 0 -x {2.0 3.0 17 ------- null}
r -t 0.079704 -s 3 -d 1 -p ack -e 40 -c 0 -i 26 -a 0 -x {3.0 2.0 8 ------- null}
+ -t 0.079704 -s 1 -d 0 -p ack -e 40 -c 0 -i 26 -a 0 -x {3.0 2.0 8 ------- null}
- -t 0.079704 -s 1 -d 0 -p ack -e 40 -c 0 -i 26 -a 0 -x {3.0 2.0 8 ------- null}
h -t 0.079704 -s 1 -d 0 -p ack -e 40 -c 0 -i 26 -a 0 -x {3.0 2.0 -1 ------- null}
- -t 0.08116 -s 0 -d 1 -p tcp -e 1040 -c 0 -i 15 -a 0 -x {2.0 3.0 10 ------- null}
h -t 0.08116 -s 0 -d 1 -p tcp -e 1040 -c 0 -i 15 -a 0 -x {2.0 3.0 -1 ------- null}
r -t 0.084024 -s 1 -d 0 -p ack -e 40 -c 0 -i 26 -a 0 -x {3.0 2.0 8 ------- null}
+ -t 0.084024 -s 0 -d 2 -p ack -e 40 -c 0 -i 26 -a 0 -x {3.0 2.0 8 ------- null}
- -t 0.084024 -s 0 -d 2 -p ack -e 40 -c 0 -i 26 -a 0 -x {3.0 2.0 8 ------- null}
h -t 0.084024 -s 0 -d 2 -p ack -e 40 -c 0 -i 26 -a 0 -x {3.0 2.0 -1 ------- null}
r -t 0.085056 -s 0 -d 2 -p ack -e 40 -c 0 -i 26 -a 0 -x {3.0 2.0 8 ------- null}
+ -t 0.085056 -s 2 -d 0 -p tcp -e 1040 -c 0 -i 27 -a 0 -x {2.0 3.0 18 ------- null}
- -t 0.085056 -s 2 -d 0 -p tcp -e 1040 -c 0 -i 27 -a 0 -x {2.0 3.0 18 ------- null}
h -t 0.085056 -s 2 -d 0 -p tcp -e 1040 -c 0 -i 27 -a 0 -x {2.0 3.0 -1 ------- null}
+ -t 0.085056 -s 2 -d 0 -p tcp -e 1040 -c 0 -i 28 -a 0 -x {2.0 3.0 19 ------- null}
r -t 0.08516 -s 0 -d 1 -p tcp -e 1040 -c 0 -i 13 -a 0 -x {2.0 3.0 9 ------- null}
+ -t 0.08516 -s 1 -d 3 -p tcp -e 1040 -c 0 -i 13 -a 0 -x {2.0 3.0 9 ------- null}
- -t 0.08516 -s 1 -d 3 -p tcp -e 1040 -c 0 -i 13 -a 0 -x {2.0 3.0 9 ------- null}
h -t 0.08516 -s 1 -d 3 -p tcp -e 1040 -c 0 -i 13 -a 0 -x {2.0 3.0 -1 ------- null}
- -t 0.085888 -s 2 -d 0 -p tcp -e 1040 -c 0 -i 28 -a 0 -x {2.0 3.0 19 ------- null}
h -t 0.085888 -s 2 -d 0 -p tcp -e 1040 -c 0 -i 28 -a 0 -x {2.0 3.0 -1 ------- null}
r -t 0.086888 -s 2 -d 0 -p tcp -e 1040 -c 0 -i 27 -a 0 -x {2.0 3.0 18 ------- null}
+ -t 0.086888 -s 0 -d 1 -p tcp -e 1040 -c 0 -i 27 -a 0 -x {2.0 3.0 18 ------- null}
r -t 0.086992 -s 1 -d 3 -p tcp -e 1040 -c 0 -i 13 -a 0 -x {2.0 3.0 9 ------- null}
+ -t 0.086992 -s 3 -d 1 -p ack -e 40 -c 0 -i 29 -a 0 -x {3.0 2.0 9 ------- null}
- -t 0.086992 -s 3 -d 1 -p ack -e 40 -c 0 -i 29 -a 0 -x {3.0 2.0 9 ------- null}
h -t 0.086992 -s 3 -d 1 -p ack -e 40 -c 0 -i 29 -a 0 -x {3.0 2.0 -1 ------- null}
r -t 0.08772 -s 2 -d 0 -p tcp -e 1040 -c 0 -i 28 -a 0 -x {2.0 3.0 19 ------- null}
+ -t 0.08772 -s 0 -d 1 -p tcp -e 1040 -c 0 -i 28 -a 0 -x {2.0 3.0 19 ------- null}
r -t 0.088024 -s 3 -d 1 -p ack -e 40 -c 0 -i 29 -a 0 -x {3.0 2.0 9 ------- null}
+ -t 0.088024 -s 1 -d 0 -p ack -e 40 -c 0 -i 29 -a 0 -x {3.0 2.0 9 ------- null}
- -t 0.088024 -s 1 -d 0 -p ack -e 40 -c 0 -i 29 -a 0 -x {3.0 2.0 9 ------- null}
h -t 0.088024 -s 1 -d 0 -p ack -e 40 -c 0 -i 29 -a 0 -x {3.0 2.0 -1 ------- null}
- -t 0.08948 -s 0 -d 1 -p tcp -e 1040 -c 0 -i 16 -a 0 -x {2.0 3.0 11 ------- null}
h -t 0.08948 -s 0 -d 1 -p tcp -e 1040 -c 0 -i 16 -a 0 -x {2.0 3.0 -1 ------- null}
r -t 0.092344 -s 1 -d 0 -p ack -e 40 -c 0 -i 29 -a 0 -x {3.0 2.0 9 ------- null}
+ -t 0.092344 -s 0 -d 2 -p ack -e 40 -c 0 -i 29 -a 0 -x {3.0 2.0 9 ------- null}
- -t 0.092344 -s 0 -d 2 -p ack -e 40 -c 0 -i 29 -a 0 -x {3.0 2.0 9 ------- null}
h -t 0.092344 -s 0 -d 2 -p ack -e 40 -c 0 -i 29 -a 0 -x {3.0 2.0 -1 ------- null}
r -t 0.093376 -s 0 -d 2 -p ack -e 40 -c 0 -i 29 -a 0 -x {3.0 2.0 9 ------- null}
+ -t 0.093376 -s 2 -d 0 -p tcp -e 1040 -c 0 -i 30 -a 0 -x {2.0 3.0 20 ------- null}
- -t 0.093376 -s 2 -d 0 -p tcp -e 1040 -c 0 -i 30 -a 0 -x {2.0 3.0 20 ------- null}
h -t 0.093376 -s 2 -d 0 -p tcp -e 1040 -c 0 -i 30 -a 0 -x {2.0 3.0 -1 ------- null}
+ -t 0.093376 -s 2 -d 0 -p tcp -e 1040 -c 0 -i 31 -a 0 -x {2.0 3.0 21 ------- null}
r -t 0.09348 -s 0 -d 1 -p tcp -e 1040 -c 0 -i 15 -a 0 -x {2.0 3.0 10 ------- null}
+ -t 0.09348 -s 1 -d 3 -p tcp -e 1040 -c 0 -i 15 -a 0 -x {2.0 3.0 10 ------- null}
- -t 0.09348 -s 1 -d 3 -p tcp -e 1040 -c 0 -i 15 -a 0 -x {2.0 3.0 10 ------- null}
h -t 0.09348 -s 1 -d 3 -p tcp -e 1040 -c 0 -i 15 -a 0 -x {2.0 3.0 -1 ------- null}
- -t 0.094208 -s 2 -d 0 -p tcp -e 1040 -c 0 -i 31 -a 0 -x {2.0 3.0 21 ------- null}
h -t 0.094208 -s 2 -d 0 -p tcp -e 1040 -c 0 -i 31 -a 0 -x {2.0 3.0 -1 ------- null}
r -t 0.095208 -s 2 -d 0 -p tcp -e 1040 -c 0 -i 30 -a 0 -x {2.0 3.0 20 ------- null}
+ -t 0.095208 -s 0 -d 1 -p tcp -e 1040 -c 0 -i 30 -a 0 -x {2.0 3.0 20 ------- null}
r -t 0.095312 -s 1 -d 3 -p tcp -e 1040 -c 0 -i 15 -a 0 -x {2.0 3.0 10 ------- null}
+ -t 0.095312 -s 3 -d 1 -p ack -e 40 -c 0 -i 32 -a 0 -x {3.0 2.0 10 ------- null}
- -t 0.095312 -s 3 -d 1 -p ack -e 40 -c 0 -i 32 -a 0 -x {3.0 2.0 10 ------- null}
h -t 0.095312 -s 3 -d 1 -p ack -e 40 -c 0 -i 32 -a 0 -x {3.0 2.0 -1 ------- null}
r -t 0.09604 -s 2 -d 0 -p tcp -e 1040 -c 0 -i 31 -a 0 -x {2.0 3.0 21 ------- null}
+ -t 0.09604 -s 0 -d 1 -p tcp -e 1040 -c 0 -i 31 -a 0 -x {2.0 3.0 21 ------- null}
r -t 0.096344 -s 3 -d 1 -p ack -e 40 -c 0 -i 32 -a 0 -x {3.0 2.0 10 ------- null}
+ -t 0.096344 -s 1 -d 0 -p ack -e 40 -c 0 -i 32 -a 0 -x {3.0 2.0 10 ------- null}
- -t 0.096344 -s 1 -d 0 -p ack -e 40 -c 0 -i 32 -a 0 -x {3.0 2.0 10 ------- null}
h -t 0.096344 -s 1 -d 0 -p ack -e 40 -c 0 -i 32 -a 0 -x {3.0 2.0 -1 ------- null}
- -t 0.0978 -s 0 -d 1 -p tcp -e 1040 -c 0 -i 18 -a 0 -x {2.0 3.0 12 ------- null}
h -t 0.0978 -s 0 -d 1 -p tcp -e 1040 -c 0 -i 18 -a 0 -x {2.0 3.0 -1 ------- null}
r -t 0.100664 -s 1 -d 0 -p ack -e 40 -c 0 -i 32 -a 0 -x {3.0 2.0 10 ------- null}
+ -t 0.100664 -s 0 -d 2 -p ack -e 40 -c 0 -i 32 -a 0 -x {3.0 2.0 10 ------- null}
- -t 0.100664 -s 0 -d 2 -p ack -e 40 -c 0 -i 32 -a 0 -x {3.0 2.0 10 ------- null}
h -t 0.100664 -s 0 -d 2 -p ack -e 40 -c 0 -i 32 -a 0 -x {3.0 2.0 -1 ------- null}
r -t 0.101696 -s 0 -d 2 -p ack -e 40 -c 0 -i 32 -a 0 -x {3.0 2.0 10 ------- null}
+ -t 0.101696 -s 2 -d 0 -p tcp -e 1040 -c 0 -i 33 -a 0 -x {2.0 3.0 22 ------- null}
- -t 0.101696 -s 2 -d 0 -p tcp -e 1040 -c 0 -i 33 -a 0 -x {2.0 3.0 22 ------- null}
h -t 0.101696 -s 2 -d 0 -p tcp -e 1040 -c 0 -i 33 -a 0 -x {2.0 3.0 -1 ------- null}
+ -t 0.101696 -s 2 -d 0 -p tcp -e 1040 -c 0 -i 34 -a 0 -x {2.0 3.0 23 ------- null}
r -t 0.1018 -s 0 -d 1 -p tcp -e 1040 -c 0 -i 16 -a 0 -x {2.0 3.0 11 ------- null}
+ -t 0.1018 -s 1 -d 3 -p tcp -e 1040 -c 0 -i 16 -a 0 -x {2.0 3.0 11 ------- null}
- -t 0.1018 -s 1 -d 3 -p tcp -e 1040 -c 0 -i 16 -a 0 -x {2.0 3.0 11 ------- null}
h -t 0.1018 -s 1 -d 3 -p tcp -e 1040 -c 0 -i 16 -a 0 -x {2.0 3.0 -1 ------- null}
- -t 0.102528 -s 2 -d 0 -p tcp -e 1040 -c 0 -i 34 -a 0 -x {2.0 3.0 23 ------- null}
h -t 0.102528 -s 2 -d 0 -p tcp -e 1040 -c 0 -i 34 -a 0 -x {2.0 3.0 -1 ------- null}
r -t 0.103528 -s 2 -d 0 -p tcp -e 1040 -c 0 -i 33 -a 0 -x {2.0 3.0 22 ------- null}
+ -t 0.103528 -s 0 -d 1 -p tcp -e 1040 -c 0 -i 33 -a 0 -x {2.0 3.0 22 ------- null}
r -t 0.103632 -s 1 -d 3 -p tcp -e 1040 -c 0 -i 16 -a 0 -x {2.0 3.0 11 ------- null}
+ -t 0.103632 -s 3 -d 1 -p ack -e 40 -c 0 -i 35 -a 0 -x {3.0 2.0 11 ------- null}
- -t 0.103632 -s 3 -d 1 -p ack -e 40 -c 0 -i 35 -a 0 -x {3.0 2.0 11 ------- null}
h -t 0.103632 -s 3 -d 1 -p ack -e 40 -c 0 -i 35 -a 0 -x {3.0 2.0 -1 ------- null}
r -t 0.10436 -s 2 -d 0 -p tcp -e 1040 -c 0 -i 34 -a 0 -x {2.0 3.0 23 ------- null}
+ -t 0.10436 -s 0 -d 1 -p tcp -e 1040 -c 0 -i 34 -a 0 -x {2.0 3.0 23 ------- null}
r -t 0.104664 -s 3 -d 1 -p ack -e 40 -c 0 -i 35 -a 0 -x {3.0 2.0 11 ------- null}
+ -t 0.104664 -s 1 -d 0 -p ack -e 40 -c 0 -i 35 -a 0 -x {3.0 2.0 11 ------- null}
- -t 0.104664 -s 1 -d 0 -p ack -e 40 -c 0 -i 35 -a 0 -x {3.0 2.0 11 ------- null}
h -t 0.104664 -s 1 -d 0 -p ack -e 40 -c 0 -i 35 -a 0 -x {3.0 2.0 -1 ------- null}
- -t 0.10612 -s 0 -d 1 -p tcp -e 1040 -c 0 -i 19 -a 0 -x {2.0 3.0 13 ------- null}
h -t 0.10612 -s 0 -d 1 -p tcp -e 1040 -c 0 -i 19 -a 0 -x {2.0 3.0 -1 ------- null}
r -t 0.108984 -s 1 -d 0 -p ack -e 40 -c 0 -i 35 -a 0 -x {3.0 2.0 11 ------- null}
+ -t 0.108984 -s 0 -d 2 -p ack -e 40 -c 0 -i 35 -a 0 -x {3.0 2.0 11 ------- null}
- -t 0.108984 -s 0 -d 2 -p ack -e 40 -c 0 -i 35 -a 0 -x {3.0 2.0 11 ------- null}
h -t 0.108984 -s 0 -d 2 -p ack -e 40 -c 0 -i 35 -a 0 -x {3.0 2.0 -1 ------- null}
r -t 0.110016 -s 0 -d 2 -p ack -e 40 -c 0 -i 35 -a 0 -x {3.0 2.0 11 ------- null}
+ -t 0.110016 -s 2 -d 0 -p tcp -e 1040 -c 0 -i 36 -a 0 -x {2.0 3.0 24 ------- null}
- -t 0.110016 -s 2 -d 0 -p tcp -e 1040 -c 0 -i 36 -a 0 -x {2.0 3.0 24 ------- null}
h -t 0.110016 -s 2 -d 0 -p tcp -e 1040 -c 0 -i 36 -a 0 -x {2.0 3.0 -1 ------- null}
+ -t 0.110016 -s 2 -d 0 -p tcp -e 1040 -c 0 -i 37 -a 0 -x {2.0 3.0 25 ------- null}
r -t 0.11012 -s 0 -d 1 -p tcp -e 1040 -c 0 -i 18 -a 0 -x {2.0 3.0 12 ------- null}
+ -t 0.11012 -s 1 -d 3 -p tcp -e 1040 -c 0 -i 18 -a 0 -x {2.0 3.0 12 ------- null}
- -t 0.11012 -s 1 -d 3 -p tcp -e 1040 -c 0 -i 18 -a 0 -x {2.0 3.0 12 ------- null}
h -t 0.11012 -s 1 -d 3 -p tcp -e 1040 -c 0 -i 18 -a 0 -x {2.0 3.0 -1 ------- null}