+ 0 2 0 tcp 40 ------- 0 2.0 3.0 0 0
- 0 2 0 tcp 40 ------- 0 2.0 3.0 0 0
+ 0 2 0 tcp 1040 ------- 0 2.0 3.0 1 1
- 3.2e-05 2 0 tcp 1040 ------- 0 2.0 3.0 1 1
r 0.001032 2 0 tcp 40 ------- 0 2.0 3.0 0 0
+ 0.001032 0 1 tcp 40 ------- 0 2.0 3.0 0 0
- 0.001032 0 1 tcp 40 ------- 0 2.0 3.0 0 0
r 0.001864 2 0 tcp 1040 ------- 0 2.0 3.0 1 1
+ 0.001864 0 1 tcp 1040 ------- 0 2.0 3.0 1 1
- 0.001864 0 1 tcp 1040 ------- 0 2.0 3.0 1 1
r 0.005352 0 1 tcp 40 ------- 0 2.0 3.0 0 0
+ 0.005352 1 3 tcp 40 ------- 0 2.0 3.0 0 0
- 0.005352 1 3 tcp 40 ------- 0 2.0 3.0 0 0
r 0.006384 1 3 tcp 40 ------- 0 2.0 3.0 0 0
+ 0.006384 3 1 ack 40 ------- 0 3.0 2.0 0 2
- 0.006384 3 1 ack 40 ------- 0 3.0 2.0 0 2
r 0.007416 3 1 ack 40 ------- 0 3.0 2.0 0 2
+ 0.007416 1 0 ack 40 ------- 0 3.0 2.0 0 2
- 0.007416 1 0 ack 40 ------- 0 3.0 2.0 0 2
r 0.011736 1 0 ack 40 ------- 0 3.0 2.0 0 2
+ 0.011736 0 2 ack 40 ------- 0 3.0 2.0 0 2
- 0.011736 0 2 ack 40 ------- 0 3.0 2.0 0 2
r 0.012768 0 2 ack 40 ------- 0 3.0 2.0 0 2
+ 0.012768 2 0 tcp 1040 ------- 0 2.0 3.0 2 3
- 0.012768 2 0 tcp 1040 ------- 0 2.0 3.0 2 3
+ 0.012768 2 0 tcp 1040 ------- 0 2.0 3.0 3 4
- 0.0136 2 0 tcp 1040 ------- 0 2.0 3.0 3 4
r 0.014184 0 1 tcp 1040 ------- 0 2.0 3.0 1 1
+ 0.014184 1 3 tcp 1040 ------- 0 2.0 3.0 1 1
- 0.014184 1 3 tcp 1040 ------- 0 2.0 3.0 1 1
r 0.0146 2 0 tcp 1040 ------- 0 2.0 3.0 2 3
+ 0.0146 0 1 tcp 1040 ------- 0 2.0 3.0 2 3
- 0.0146 0 1 tcp 1040 ------- 0 2.0 3.0 2 3
r 0.015432 2 0 tcp 1040 ------- 0 2.0 3.0 3 4
+ 0.015432 0 1 tcp 1040 ------- 0 2.0 3.0 3 4
r 0.016016 1 3 tcp 1040 ------- 0 2.0 3.0 1 1
+ 0.016016 3 1 ack 40 ------- 0 3.0 2.0 1 5
- 0.016016 3 1 ack 40 ------- 0 3.0 2.0 1 5
r 0.017048 3 1 ack 40 ------- 0 3.0 2.0 1 5
+ 0.017048 1 0 ack 40 ------- 0 3.0 2.0 1 5
- 0.017048 1 0 ack 40 ------- 0 3.0 2.0 1 5
r 0.021368 1 0 ack 40 ------- 0 3.0 2.0 1 5
+ 0.021368 0 2 ack 40 ------- 0 3.0 2.0 1 5
- 0.021368 0 2 ack 40 ------- 0 3.0 2.0 1 5
r 0.0224 0 2 ack 40 ------- 0 3.0 2.0 1 5
+ 0.0224 2 0 tcp 1040 ------- 0 2.0 3.0 4 6
- 0.0224 2 0 tcp 1040 ------- 0 2.0 3.0 4 6
+ 0.0224 2 0 tcp 1040 ------- 0 2.0 3.0 5 7
- 0.02292 0 1 tcp 1040 ------- 0 2.0 3.0 3 4
- 0.023232 2 0 tcp 1040 ------- 0 2.0 3.0 5 7
r 0.024232 2 0 tcp 1040 ------- 0 2.0 3.0 4 6
+ 0.024232 0 1 tcp 1040 ------- 0 2.0 3.0 4 6
r 0.025064 2 0 tcp 1040 ------- 0 2.0 3.0 5 7
+ 0.025064 0 1 tcp 1040 ------- 0 2.0 3.0 5 7
r 0.02692 0 1 tcp 1040 ------- 0 2.0 3.0 2 3
+ 0.02692 1 3 tcp 1040 ------- 0 2.0 3.0 2 3
- 0.02692 1 3 tcp 1040 ------- 0 2.0 3.0 2 3
r 0.028752 1 3 tcp 1040 ------- 0 2.0 3.0 2 3
+ 0.028752 3 1 ack 40 ------- 0 3.0 2.0 2 8
- 0.028752 3 1 ack 40 ------- 0 3.0 2.0 2 8
r 0.029784 3 1 ack 40 ------- 0 3.0 2.0 2 8
+ 0.029784 1 0 ack 40 ------- 0 3.0 2.0 2 8
- 0.029784 1 0 ack 40 ------- 0 3.0 2.0 2 8
- 0.03124 0 1 tcp 1040 ------- 0 2.0 3.0 4 6
r 0.034104 1 0 ack 40 ------- 0 3.0 2.0 2 8
+ 0.034104 0 2 ack 40 ------- 0 3.0 2.0 2 8
- 0.034104 0 2 ack 40 ------- 0 3.0 2.0 2 8
r 0.035136 0 2 ack 40 ------- 0 3.0 2.0 2 8
+ 0.035136 2 0 tcp 1040 ------- 0 2.0 3.0 6 9
- 0.035136 2 0 tcp 1040 ------- 0 2.0 3.0 6 9
+ 0.035136 2 0 tcp 1040 ------- 0 2.0 3.0 7 10
r 0.03524 0 1 tcp 1040 ------- 0 2.0 3.0 3 4
+ 0.03524 1 3 tcp 1040 ------- 0 2.0 3.0 3 4
- 0.03524 1 3 tcp 1040 ------- 0 2.0 3.0 3 4
- 0.035968 2 0 tcp 1040 ------- 0 2.0 3.0 7 10
r 0.036968 2 0 tcp 1040 ------- 0 2.0 3.0 6 9
+ 0.036968 0 1 tcp 1040 ------- 0 2.0 3.0 6 9
r 0.037072 1 3 tcp 1040 ------- 0 2.0 3.0 3 4
+ 0.037072 3 1 ack 40 ------- 0 3.0 2.0 3 11
- 0.037072 3 1 ack 40 ------- 0 3.0 2.0 3 11
r 0.0378 2 0 tcp 1040 ------- 0 2.0 3.0 7 10
+ 0.0378 0 1 tcp 1040 ------- 0 2.0 3.0 7 10
r 0.038104 3 1 ack 40 ------- 0 3.0 2.0 3 11
+ 0.038104 1 0 ack 40 ------- 0 3.0 2.0 3 11
- 0.038104 1 0 ack 40 ------- 0 3.0 2.0 3 11
- 0.03956 0 1 tcp 1040 ------- 0 2.0 3.0 5 7
r 0.042424 1 0 ack 40 ------- 0 3.0 2.0 3 11
+ 0.042424 0 2 ack 40 ------- 0 3.0 2.0 3 11
- 0.042424 0 2 ack 40 ------- 0 3.0 2.0 3 11
r 0.043456 0 2 ack 40 ------- 0 3.0 2.0 3 11
+ 0.043456 2 0 tcp 1040 ------- 0 2.0 3.0 8 12
- 0.043456 2 0 tcp 1040 ------- 0 2.0 3.0 8 12
+ 0.043456 2 0 tcp 1040 ------- 0 2.0 3.0 9 13
r 0.04356 0 1 tcp 1040 ------- 0 2.0 3.0 4 6
+ 0.04356 1 3 tcp 1040 ------- 0 2.0 3.0 4 6
- 0.04356 1 3 tcp 1040 ------- 0 2.0 3.0 4 6
- 0.044288 2 0 tcp 1040 ------- 0 2.0 3.0 9 13
r 0.045288 2 0 tcp 1040 ------- 0 2.0 3.0 8 12
+ 0.045288 0 1 tcp 1040 ------- 0 2.0 3.0 8 12
r 0.045392 1 3 tcp 1040 ------- 0 2.0 3.0 4 6
+ 0.045392 3 1 ack 40 ------- 0 3.0 2.0 4 14
- 0.045392 3 1 ack 40 ------- 0 3.0 2.0 4 14
r 0.04612 2 0 tcp 1040 ------- 0 2.0 3.0 9 13
+ 0.04612 0 1 tcp 1040 ------- 0 2.0 3.0 9 13
r 0.046424 3 1 ack 40 ------- 0 3.0 2.0 4 14
+ 0.046424 1 0 ack 40 ------- 0 3.0 2.0 4 14
- 0.046424 1 0 ack 40 ------- 0 3.0 2.0 4 14
- 0.04788 0 1 tcp 1040 ------- 0 2.0 3.0 6 9
r 0.050744 1 0 ack 40 ------- 0 3.0 2.0 4 14
+ 0.050744 0 2 ack 40 ------- 0 3.0 2.0 4 14
- 0.050744 0 2 ack 40 ------- 0 3.0 2.0 4 14
r 0.051776 0 2 ack 40 ------- 0 3.0 2.0 4 14
+ 0.051776 2 0 tcp 1040 ------- 0 2.0 3.0 10 15
- 0.051776 2 0 tcp 1040 ------- 0 2.0 3.0 10 15
+ 0.051776 2 0 tcp 1040 ------- 0 2.0 3.0 11 16
r 0.05188 0 1 tcp 1040 ------- 0 2.0 3.0 5 7
+ 0.05188 1 3 tcp 1040 ------- 0 2.0 3.0 5 7
- 0.05188 1 3 tcp 1040 ------- 0 2.0 3.0 5 7
- 0.052608 2 0 tcp 1040 ------- 0 2.0 3.0 11 16
r 0.053608 2 0 tcp 1040 ------- 0 2.0 3.0 10 15
+ 0.053608 0 1 tcp 1040 ------- 0 2.0 3.0 10 15
r 0.053712 1 3 tcp 1040 ------- 0 2.0 3.0 5 7
+ 0.053712 3 1 ack 40 ------- 0 3.0 2.0 5 17
- 0.053712 3 1 ack 40 ------- 0 3.0 2.0 5 17
r 0.05444 2 0 tcp 1040 ------- 0 2.0 3.0 11 16
+ 0.05444 0 1 tcp 1040 ------- 0 2.0 3.0 11 16
r 0.054744 3 1 ack 40 ------- 0 3.0 2.0 5 17
+ 0.054744 1 0 ack 40 ------- 0 3.0 2.0 5 17
- 0.054744 1 0 ack 40 ------- 0 3.0 2.0 5 17
- 0.0562 0 1 tcp 1040 ------- 0 2.0 3.0 7 10
r 0.059064 1 0 ack 40 ------- 0 3.0 2.0 5 17
+ 0.059064 0 2 ack 40 ------- 0 3.0 2.0 5 17
- 0.059064 0 2 ack 40 ------- 0 3.0 2.0 5 17
r 0.060096 0 2 ack 40 ------- 0 3.0 2.0 5 17
+ 0.060096 2 0 tcp 1040 ------- 0 2.0 3.0 12 18
- 0.060096 2 0 tcp 1040 ------- 0 2.0 3.0 12 18
+ 0.060096 2 0 tcp 1040 ------- 0 2.0 3.0 13 19
r 0.0602 0 1 tcp 1040 ------- 0 2.0 3.0 6 9
+ 0.0602 1 3 tcp 1040 ------- 0 2.0 3.0 6 9
- 0.0602 1 3 tcp 1040 ------- 0 2.0 3.0 6 9
- 0.060928 2 0 tcp 1040 ------- 0 2.0 3.0 13 19
r 0.061928 2 0 tcp 1040 ------- 0 2.0 3.0 12 18
+ 0.061928 0 1 tcp 1040 ------- 0 2.0 3.0 12 18
r 0.062032 1 3 tcp 1040 ------- 0 2.0 3.0 6 9
+ 0.062032 3 1 ack 40 ------- 0 3.0 2.0 6 20
- 0.062032 3 1 ack 40 ------- 0 3.0 2.0 6 20
r 0.06276 2 0 tcp 1040 ------- 0 2.0 3.0 13 19
+ 0.06276 0 1 tcp 1040 ------- 0 2.0 3.0 13 19
r 0.063064 3 1 ack 40 ------- 0 3.0 2.0 6 20
+ 0.063064 1 0 ack 40 ------- 0 3.0 2.0 6 20
- 0.063064 1 0 ack 40 ------- 0 3.0 2.0 6 20
- 0.06452 0 1 tcp 1040 ------- 0 2.0 3.0 8 12
r 0.067384 1 0 ack 40 ------- 0 3.0 2.0 6 20
+ 0.067384 0 2 ack 40 ------- 0 3.0 2.0 6 20
- 0.067384 0 2 ack 40 ------- 0 3.0 2.0 6 20
r 0.068416 0 2 ack 40 ------- 0 3.0 2.0 6 20
+ 0.068416 2 0 tcp 1040 ------- 0 2.0 3.0 14 21
- 0.068416 2 0 tcp 1040 ------- 0 2.0 3.0 14 21
+ 0.068416 2 0 tcp 1040 ------- 0 2.0 3.0 15 22
r 0.06852 0 1 tcp 1040 ------- 0 2.0 3.0 7 10
+ 0.06852 1 3 tcp 1040 ------- 0 2.0 3.0 7 10
- 0.06852 1 3 tcp 1040 ------- 0 2.0 3.0 7 10
- 0.069248 2 0 tcp 1040 ------- 0 2.0 3.0 15 22
r 0.070248 2 0 tcp 1040 ------- 0 2.0 3.0 14 21
+ 0.070248 0 1 tcp 1040 ------- 0 2.0 3.0 14 21
r 0.070352 1 3 tcp 1040 ------- 0 2.0 3.0 7 10
+ 0.070352 3 1 ack 40 ------- 0 3.0 2.0 7 23
- 0.070352 3 1 ack 40 ------- 0 3.0 2.0 7 23
r 0.07108 2 0 tcp 1040 ------- 0 2.0 3.0 15 22
+ 0.07108 0 1 tcp 1040 ------- 0 2.0 3.0 15 22
r 0.071384 3 1 ack 40 ------- 0 3.0 2.0 7 23
+ 0.071384 1 0 ack 40 ------- 0 3.0 2.0 7 23
- 0.071384 1 0 ack 40 ------- 0 3.0 2.0 7 23
- 0.07284 0 1 tcp 1040 ------- 0 2.0 3.0 9 13
r 0.075704 1 0 ack 40 ------- 0 3.0 2.0 7 23
+ 0.075704 0 2 ack 40 ------- 0 3.0 2.0 7 23
- 0.075704 0 2 ack 40 ------- 0 3.0 2.0 7 23
r 0.076736 0 2 ack 40 ------- 0 3.0 2.0 7 23
+ 0.076736 2 0 tcp 1040 ------- 0 2.0 3.0 16 24
- 0.076736 2 0 tcp 1040 ------- 0 2.0 3.0 16 24
+ 0.076736 2 0 tcp 1040 ------- 0 2.0 3.0 17 25
r 0.07684 0 1 tcp 1040 ------- 0 2.0 3.0 8 12
+ 0.07684 1 3 tcp 1040 ------- 0 2.0 3.0 8 12
- 0.07684 1 3 tcp 1040 ------- 0 2.0 3.0 8 12
- 0.077568 2 0 tcp 1040 ------- 0 2.0 3.0 17 25
r 0.078568 2 0 tcp 1040 ------- 0 2.0 3.0 16 24
+ 0.078568 0 1 tcp 1040 ------- 0 2.0 3.0 16 24
r 0.078672 1 3 tcp 1040 ------- 0 2.0 3.0 8 12
+ 0.078672 3 1 ack 40 ------- 0 3.0 2.0 8 26
- 0.078672 3 1 ack 40 ------- 0 3.0 2.0 8 26
r 0.0794 2 0 tcp 1040 ------- 0 2.0 3.0 17 25
+ 0.0794 0 1 tcp 1040 ------- 0 2.0 3.0 17 25
r 0.079704 3 1 ack 40 ------- 0 3.0 2.0 8 26
+ 0.079704 1 0 ack 40 ------- 0 3.0 2.0 8 26
- 0.079704 1 0 ack 40 ------- 0 3.0 2.0 8 26
- 0.08116 0 1 tcp 1040 ------- 0 2.0 3.0 10 15
r 0.084024 1 0 ack 40 ------- 0 3.0 2.0 8 26
+ 0.084024 0 2 ack 40 ------- 0 3.0 2.0 8 26
- 0.084024 0 2 ack 40 ------- 0 3.0 2.0 8 26
r 0.085056 0 2 ack 40 ------- 0 3.0 2.0 8 26
+ 0.085056 2 0 tcp 1040 ------- 0 2.0 3.0 18 27
- 0.085056 2 0 tcp 1040 ------- 0 2.0 3.0 18 27
+ 0.085056 2 0 tcp 1040 ------- 0 2.0 3.0 19 28
r 0.08516 0 1 tcp 1040 ------- 0 2.0 3.0 9 13
+ 0.08516 1 3 tcp 1040 ------- 0 2.0 3.0 9 13
- 0.08516 1 3 tcp 1040 ------- 0 2.0 3.0 9 13
- 0.085888 2 0 tcp 1040 ------- 0 2.0 3.0 19 28
r 0.086888 2 0 tcp 1040 ------- 0 2.0 3.0 18 27
+ 0.086888 0 1 tcp 1040 ------- 0 2.0 3.0 18 27
r 0.086992 1 3 tcp 1040 ------- 0 2.0 3.0 9 13
+ 0.086992 3 1 ack 40 ------- 0 3.0 2.0 9 29
- 0.086992 3 1 ack 40 ------- 0 3.0 2.0 9 29
r 0.08772 2 0 tcp 1040 ------- 0 2.0 3.0 19 28
+ 0.08772 0 1 tcp 1040 ------- 0 2.0 3.0 19 28
r 0.088024 3 1 ack 40 ------- 0 3.0 2.0 9 29
+ 0.088024 1 0 ack 40 ------- 0 3.0 2.0 9 29
- 0.088024 1 0 ack 40 ------- 0 3.0 2.0 9 29
- 0.08948 0 1 tcp 1040 ------- 0 2.0 3.0 11 16
r 0.092344 1 0 ack 40 ------- 0 3.0 2.0 9 29
+ 0.092344 0 2 ack 40 ------- 0 3.0 2.0 9 29
- 0.092344 0 2 ack 40 ------- 0 3.0 2.0 9 29
r 0.093376 0 2 ack 40 ------- 0 3.0 2.0 9 29
+ 0.093376 2 0 tcp 1040 ------- 0 2.0 3.0 20 30
- 0.093376 2 0 tcp 1040 ------- 0 2.0 3.0 20 30
+ 0.093376 2 0 tcp 1040 ------- 0 2.0 3.0 21 31
r 0.09348 0 1 tcp 1040 ------- 0 2.0 3.0 10 15
+ 0.09348 1 3 tcp 1040 ------- 0 2.0 3.0 10 15
- 0.09348 1 3 tcp 1040 ------- 0 2.0 3.0 10 15
- 0.094208 2 0 tcp 1040 ------- 0 2.0 3.0 21 31
r 0.095208 2 0 tcp 1040 ------- 0 2.0 3.0 20 30
+ 0.095208 0 1 tcp 1040 ------- 0 2.0 3.0 20 30
r 0.095312 1 3 tcp 1040 ------- 0 2.0 3.0 10 15
+ 0.095312 3 1 ack 40 ------- 0 3.0 2.0 10 32
- 0.095312 3 1 ack 40 ------- 0 3.0 2.0 10 32
r 0.09604 2 0 tcp 1040 ------- 0 2.0 3.0 21 31
+ 0.09604 0 1 tcp 1040 ------- 0 2.0 3.0 21 31
r 0.096344 3 1 ack 40 ------- 0 3.0 2.0 10 32
+ 0.096344 1 0 ack 40 ------- 0 3.0 2.0 10 32
- 0.096344 1 0 ack 40 ------- 0 3.0 2.0 10 32
- 0.0978 0 1 tcp 1040 ------- 0 2.0 3.0 12 18
r 0.100664 1 0 ack 40 ------- 0 3.0 2.0 10 32
+ 0.100664 0 2 ack 40 ------- 0 3.0 2.0 10 32
- 0.100664 0 2 ack 40 ------- 0 3.0 2.0 10 32
r 0.101696 0 2 ack 40 ------- 0 3.0 2.0 10 32
+ 0.101696 2 0 tcp 1040 ------- 0 2.0 3.0 22 33
- 0.101696 2 0 tcp 1040 ------- 0 2.0 3.0 22 33
+ 0.101696 2 0 tcp 1040 ------- 0 2.0 3.0 23 34
r 0.1018 0 1 tcp 1040 ------- 0 2.0 3.0 11 16
+ 0.1018 1 3 tcp 1040 ------- 0 2.0 3.0 11 16
- 0.1018 1 3 tcp 1040 ------- 0 2.0 3.0 11 16
- 0.102528 2 0 tcp 1040 ------- 0 2.0 3.0 23 34
r 0.103528 2 0 tcp 1040 ------- 0 2.0 3.0 22 33
+ 0.103528 0 1 tcp 1040 ------- 0 2.0 3.0 22 33
r 0.103632 1 3 tcp 1040 ------- 0 2.0 3.0 11 16
+ 0.103632 3 1 ack 40 ------- 0 3.0 2.0 11 35
- 0.103632 3 1 ack 40 ------- 0 3.0 2.0 11 35
r 0.10436 2 0 tcp 1040 ------- 0 2.0 3.0 23 34
+ 0.10436 0 1 tcp 1040 ------- 0 2.0 3.0 23 34
r 0.104664 3 1 ack 40 ------- 0 3.0 2.0 11 35
+ 0.104664 1 0 ack 40 ------- 0 3.0 2.0 11 35
- 0.104664 1 0 ack 40 ------- 0 3.0 2.0 11 35
- 0.10612 0 1 tcp 1040 ------- 0 2.0 3.0 13 19
r 0.108984 1 0 ack 40 ------- 0 3.0 2.0 11 35
+ 0.108984 0 2 ack 40 ------- 0 3.0 2.0 11 35
- 0.108984 0 2 ack 40 ------- 0 3.0 2.0 11 35
r 0.110016 0 2 ack 40 ------- 0 3.0 2.0 11 35
+ 0.110016 2 0 tcp 1040 ------- 0 2.0 3.0 24 36
- 0.110016 2 0 tcp 1040 ------- 0 2.0 3.0 24 36
+ 0.110016 2 0 tcp 1040 ------- 0 2.0 3.0 25 37
r 0.11012 0 1 tcp 1040 ------- 0 2.0 3.0 12 18
+ 0.11012 1 3 tcp 1040 ------- 0 2.0 3.0 12 18
- 0.11012 1 3 tcp 1040 ------- 0 2.0 3.0 12 18
- 0.110848 2 0 tcp 1040 ------- 0 2.0 3.0 25 37
r 0.111848 2 0 tcp 1040 ------- 0 2.0 3.0 24 36
+ 0.111848 0 1 tcp 1040 ------- 0 2.0 3.0 24 36
r 0.111952 1 3 tcp 1040 ------- 0 2.0 3.0 12 18
+ 0.111952 3 1 ack 40 ------- 0 3.0 2.0 12 38
- 0.111952 3 1 ack 40 ------- 0 3.0 2.0 12 38
r 0.11268 2 0 tcp 1040 ------- 0 2.0 3.0 25 37
+ 0.11268 0 1 tcp 1040 ------- 0 2.0 3.0 25 37
r 0.112984 3 1 ack 40 ------- 0 3.0 2.0 12 38
+ 0.112984 1 0 ack 40 ------- 0 3.0 2.0 12 38
- 0.112984 1 0 ack 40 ------- 0 3.0 2.0 12 38
- 0.11444 0 1 tcp 1040 ------- 0 2.0 3.0 14 21
r 0.117304 1 0 ack 40 ------- 0 3.0 2.0 12 38
+ 0.117304 0 2 ack 40 ------- 0 3.0 2.0 12 38
- 0.117304 0 2 ack 40 ------- 0 3.0 2.0 12 38
r 0.118336 0 2 ack 40 ------- 0 3.0 2.0 12 38
+ 0.118336 2 0 tcp 1040 ------- 0 2.0 3.0 26 39
- 0.118336 2 0 tcp 1040 ------- 0 2.0 3.0 26 39
+ 0.118336 2 0 tcp 1040 ------- 0 2.0 3.0 27 40
r 0.11844 0 1 tcp 1040 ------- 0 2.0 3.0 13 19
+ 0.11844 1 3 tcp 1040 ------- 0 2.0 3.0 13 19
- 0.11844 1 3 tcp 1040 ------- 0 2.0 3.0 13 19
- 0.119168 2 0 tcp 1040 ------- 0 2.0 3.0 27 40
r 0.120168 2 0 tcp 1040 ------- 0 2.0 3.0 26 39
+ 0.120168 0 1 tcp 1040 ------- 0 2.0 3.0 26 39
r 0.120272 1 3 tcp 1040 ------- 0 2.0 3.0 13 19
+ 0.120272 3 1 ack 40 ------- 0 3.0 2.0 13 41
- 0.120272 3 1 ack 40 ------- 0 3.0 2.0 13 41
r 0.121 2 0 tcp 1040 ------- 0 2.0 3.0 27 40
+ 0.121 0 1 tcp 1040 ------- 0 2.0 3.0 27 40
r 0.121304 3 1 ack 40 ------- 0 3.0 2.0 13 41
+ 0.121304 1 0 ack 40 ------- 0 3.0 2.0 13 41
- 0.121304 1 0 ack 40 ------- 0 3.0 2.0 13 41
- 0.12276 0 1 tcp 1040 ------- 0 2.0 3.0 15 22
r 0.125624 1 0 ack 40 ------- 0 3.0 2.0 13 41
+ 0.125624 0 2 ack 40 ------- 0 3.0 2.0 13 41
- 0.125624 0 2 ack 40 ------- 0 3.0 2.0 13 41
r 0.126656 0 2 ack 40 ------- 0 3.0 2.0 13 41
+ 0.126656 2 0 tcp 1040 ------- 0 2.0 3.0 28 42
- 0.126656 2 0 tcp 1040 ------- 0 2.0 3.0 28 42
+ 0.126656 2 0 tcp 1040 ------- 0 2.0 3.0 29 43
r 0.12676 0 1 tcp 1040 ------- 0 2.0 3.0 14 21
+ 0.12676 1 3 tcp 1040 ------- 0 2.0 3.0 14 21
- 0.12676 1 3 tcp 1040 ------- 0 2.0 3.0 14 21
- 0.127488 2 0 tcp 1040 ------- 0 2.0 3.0 29 43
r 0.128488 2 0 tcp 1040 ------- 0 2.0 3.0 28 42
+ 0.128488 0 1 tcp 1040 ------- 0 2.0 3.0 28 42
r 0.128592 1 3 tcp 1040 ------- 0 2.0 3.0 14 21
+ 0.128592 3 1 ack 40 ------- 0 3.0 2.0 14 44
- 0.128592 3 1 ack 40 ------- 0 3.0 2.0 14 44
r 0.12932 2 0 tcp 1040 ------- 0 2.0 3.0 29 43
+ 0.12932 0 1 tcp 1040 ------- 0 2.0 3.0 29 43
r 0.129624 3 1 ack 40 ------- 0 3.0 2.0 14 44
+ 0.129624 1 0 ack 40 ------- 0 3.0 2.0 14 44
- 0.129624 1 0 ack 40 ------- 0 3.0 2.0 14 44
- 0.13108 0 1 tcp 1040 ------- 0 2.0 3.0 16 24
r 0.133944 1 0 ack 40 ------- 0 3.0 2.0 14 44
+ 0.133944 0 2 ack 40 ------- 0 3.0 2.0 14 44
- 0.133944 0 2 ack 40 ------- 0 3.0 2.0 14 44
r 0.134976 0 2 ack 40 ------- 0 3.0 2.0 14 44
+ 0.134976 2 0 tcp 1040 ------- 0 2.0 3.0 30 45
- 0.134976 2 0 tcp 1040 ------- 0 2.0 3.0 30 45
+ 0.134976 2 0 tcp 1040 ------- 0 2.0 3.0 31 46
r 0.13508 0 1 tcp 1040 ------- 0 2.0 3.0 15 22
+ 0.13508 1 3 tcp 1040 ------- 0 2.0 3.0 15 22
- 0.13508 1 3 tcp 1040 ------- 0 2.0 3.0 15 22
- 0.135808 2 0 tcp 1040 ------- 0 2.0 3.0 31 46
r 0.136808 2 0 tcp 1040 ------- 0 2.0 3.0 30 45
+ 0.136808 0 1 tcp 1040 ------- 0 2.0 3.0 30 45
r 0.136912 1 3 tcp 1040 ------- 0 2.0 3.0 15 22
+ 0.136912 3 1 ack 40 ------- 0 3.0 2.0 15 47
- 0.136912 3 1 ack 40 ------- 0 3.0 2.0 15 47
r 0.13764 2 0 tcp 1040 ------- 0 2.0 3.0 31 46
+ 0.13764 0 1 tcp 1040 ------- 0 2.0 3.0 31 46
r 0.137944 3 1 ack 40 ------- 0 3.0 2.0 15 47
+ 0.137944 1 0 ack 40 ------- 0 3.0 2.0 15 47
- 0.137944 1 0 ack 40 ------- 0 3.0 2.0 15 47
- 0.1394 0 1 tcp 1040 ------- 0 2.0 3.0 17 25
r 0.142264 1 0 ack 40 ------- 0 3.0 2.0 15 47
+ 0.142264 0 2 ack 40 ------- 0 3.0 2.0 15 47
- 0.142264 0 2 ack 40 ------- 0 3.0 2.0 15 47
r 0.143296 0 2 ack 40 ------- 0 3.0 2.0 15 47
+ 0.143296 2 0 tcp 1040 ------- 0 2.0 3.0 32 48
- 0.143296 2 0 tcp 1040 ------- 0 2.0 3.0 32 48
+ 0.143296 2 0 tcp 1040 ------- 0 2.0 3.0 33 49
r 0.1434 0 1 tcp 1040 ------- 0 2.0 3.0 16 24
+ 0.1434 1 3 tcp 1040 ------- 0 2.0 3.0 16 24
- 0.1434 1 3 tcp 1040 ------- 0 2.0 3.0 16 24
- 0.144128 2 0 tcp 1040 ------- 0 2.0 3.0 33 49
r 0.145128 2 0 tcp 1040 ------- 0 2.0 3.0 32 48
+ 0.145128 0 1 tcp 1040 ------- 0 2.0 3.0 32 48
r 0.145232 1 3 tcp 1040 ------- 0 2.0 3.0 16 24
+ 0.145232 3 1 ack 40 ------- 0 3.0 2.0 16 50
- 0.145232 3 1 ack 40 ------- 0 3.0 2.0 16 50
r 0.14596 2 0 tcp 1040 ------- 0 2.0 3.0 33 49
+ 0.14596 0 1 tcp 1040 ------- 0 2.0 3.0 33 49
r 0.146264 3 1 ack 40 ------- 0 3.0 2.0 16 50
+ 0.146264 1 0 ack 40 ------- 0 3.0 2.0 16 50
- 0.146264 1 0 ack 40 ------- 0 3.0 2.0 16 50
- 0.14772 0 1 tcp 1040 ------- 0 2.0 3.0 18 27
r 0.150584 1 0 ack 40 ------- 0 3.0 2.0 16 50
+ 0.150584 0 2 ack 40 ------- 0 3.0 2.0 16 50
- 0.150584 0 2 ack 40 ------- 0 3.0 2.0 16 50
r 0.151616 0 2 ack 40 ------- 0 3.0 2.0 16 50
+ 0.151616 2 0 tcp 1040 ------- 0 2.0 3.0 34 51
- 0.151616 2 0 tcp 1040 ------- 0 2.0 3.0 34 51
+ 0.151616 2 0 tcp 1040 ------- 0 2.0 3.0 35 52
r 0.15172 0 1 tcp 1040 ------- 0 2.0 3.0 17 25
+ 0.15172 1 3 tcp 1040 ------- 0 2.0 3.0 17 25
- 0.15172 1 3 tcp 1040 ------- 0 2.0 3.0 17 25
- 0.152448 2 0 tcp 1040 ------- 0 2.0 3.0 35 52
r 0.153448 2 0 tcp 1040 ------- 0 2.0 3.0 34 51
+ 0.153448 0 1 tcp 1040 ------- 0 2.0 3.0 34 51
r 0.153552 1 3 tcp 1040 ------- 0 2.0 3.0 17 25
+ 0.153552 3 1 ack 40 ------- 0 3.0 2.0 17 53
- 0.153552 3 1 ack 40 ------- 0 3.0 2.0 17 53
r 0.15428 2 0 tcp 1040 ------- 0 2.0 3.0 35 52
+ 0.15428 0 1 tcp 1040 ------- 0 2.0 3.0 35 52
r 0.154584 3 1 ack 40 ------- 0 3.0 2.0 17 53
+ 0.154584 1 0 ack 40 ------- 0 3.0 2.0 17 53
- 0.154584 1 0 ack 40 ------- 0 3.0 2.0 17 53
- 0.15604 0 1 tcp 1040 ------- 0 2.0 3.0 19 28
r 0.158904 1 0 ack 40 ------- 0 3.0 2.0 17 53
+ 0.158904 0 2 ack 40 ------- 0 3.0 2.0 17 53
- 0.158904 0 2 ack 40 ------- 0 3.0 2.0 17 53
r 0.159936 0 2 ack 40 ------- 0 3.0 2.0 17 53
+ 0.159936 2 0 tcp 1040 ------- 0 2.0 3.0 36 54
- 0.159936 2 0 tcp 1040 ------- 0 2.0 3.0 36 54
+ 0.159936 2 0 tcp 1040 ------- 0 2.0 3.0 37 55
r 0.16004 0 1 tcp 1040 ------- 0 2.0 3.0 18 27
+ 0.16004 1 3 tcp 1040 ------- 0 2.0 3.0 18 27
- 0.16004 1 3 tcp 1040 ------- 0 2.0 3.0 18 27
- 0.160768 2 0 tcp 1040 ------- 0 2.0 3.0 37 55
r 0.161768 2 0 tcp 1040 ------- 0 2.0 3.0 36 54
+ 0.161768 0 1 tcp 1040 ------- 0 2.0 3.0 36 54
r 0.161872 1 3 tcp 1040 ------- 0 2.0 3.0 18 27
+ 0.161872 3 1 ack 40 ------- 0 3.0 2.0 18 56
- 0.161872 3 1 ack 40 ------- 0 3.0 2.0 18 56
r 0.1626 2 0 tcp 1040 ------- 0 2.0 3.0 37 55
+ 0.1626 0 1 tcp 1040 ------- 0 2.0 3.0 37 55
d 0.1626 0 1 tcp 1040 ------- 0 2.0 3.0 37 55
r 0.162904 3 1 ack 40 ------- 0 3.0 2.0 18 56
+ 0.162904 1 0 ack 40 ------- 0 3.0 2.0 18 56
- 0.162904 1 0 ack 40 ------- 0 3.0 2.0 18 56
- 0.16436 0 1 tcp 1040 ------- 0 2.0 3.0 20 30
r 0.167224 1 0 ack 40 ------- 0 3.0 2.0 18 56
+ 0.167224 0 2 ack 40 ------- 0 3.0 2.0 18 56
- 0.167224 0 2 ack 40 ------- 0 3.0 2.0 18 56
r 0.168256 0 2 ack 40 ------- 0 3.0 2.0 18 56
+ 0.168256 2 0 tcp 1040 ------- 0 2.0 3.0 38 57
- 0.168256 2 0 tcp 1040 ------- 0 2.0 3.0 38 57
r 0.16836 0 1 tcp 1040 ------- 0 2.0 3.0 19 28
+ 0.16836 1 3 tcp 1040 ------- 0 2.0 3.0 19 28
- 0.16836 1 3 tcp 1040 ------- 0 2.0 3.0 19 28
r 0.170088 2 0 tcp 1040 ------- 0 2.0 3.0 38 57
+ 0.170088 0 1 tcp 1040 ------- 0 2.0 3.0 38 57
r 0.170192 1 3 tcp 1040 ------- 0 2.0 3.0 19 28
+ 0.170192 3 1 ack 40 ------- 0 3.0 2.0 19 58
- 0.170192 3 1 ack 40 ------- 0 3.0 2.0 19 58
r 0.171224 3 1 ack 40 ------- 0 3.0 2.0 19 58
+ 0.171224 1 0 ack 40 ------- 0 3.0 2.0 19 58
- 0.171224 1 0 ack 40 ------- 0 3.0 2.0 19 58
- 0.17268 0 1 tcp 1040 ------- 0 2.0 3.0 21 31
r 0.175544 1 0 ack 40 ------- 0 3.0 2.0 19 58
+ 0.175544 0 2 ack 40 ------- 0 3.0 2.0 19 58
- 0.175544 0 2 ack 40 ------- 0 3.0 2.0 19 58
r 0.176576 0 2 ack 40 ------- 0 3.0 2.0 19 58
+ 0.176576 2 0 tcp 1040 ------- 0 2.0 3.0 39 59
- 0.176576 2 0 tcp 1040 ------- 0 2.0 3.0 39 59
r 0.17668 0 1 tcp 1040 ------- 0 2.0 3.0 20 30
+ 0.17668 1 3 tcp 1040 ------- 0 2.0 3.0 20 30
- 0.17668 1 3 tcp 1040 ------- 0 2.0 3.0 20 30
r 0.178408 2 0 tcp 1040 ------- 0 2.0 3.0 39 59
+ 0.178408 0 1 tcp 1040 ------- 0 2.0 3.0 39 59
r 0.178512 1 3 tcp 1040 ------- 0 2.0 3.0 20 30
+ 0.178512 3 1 ack 40 ------- 0 3.0 2.0 20 60
- 0.178512 3 1 ack 40 ------- 0 3.0 2.0 20 60
r 0.179544 3 1 ack 40 ------- 0 3.0 2.0 20 60
+ 0.179544 1 0 ack 40 ------- 0 3.0 2.0 20 60
- 0.179544 1 0 ack 40 ------- 0 3.0 2.0 20 60
- 0.181 0 1 tcp 1040 ------- 0 2.0 3.0 22 33
r 0.183864 1 0 ack 40 ------- 0 3.0 2.0 20 60
+ 0.183864 0 2 ack 40 ------- 0 3.0 2.0 20 60
- 0.183864 0 2 ack 40 ------- 0 3.0 2.0 20 60
r 0.184896 0 2 ack 40 ------- 0 3.0 2.0 20 60
+ 0.184896 2 0 tcp 1040 ------- 0 2.0 3.0 40 61
- 0.184896 2 0 tcp 1040 ------- 0 2.0 3.0 40 61
r 0.185 0 1 tcp 1040 ------- 0 2.0 3.0 21 31
+ 0.185 1 3 tcp 1040 ------- 0 2.0 3.0 21 31
- 0.185 1 3 tcp 1040 ------- 0 2.0 3.0 21 31
r 0.186728 2 0 tcp 1040 ------- 0 2.0 3.0 40 61
+ 0.186728 0 1 tcp 1040 ------- 0 2.0 3.0 40 61
r 0.186832 1 3 tcp 1040 ------- 0 2.0 3.0 21 31
+ 0.186832 3 1 ack 40 ------- 0 3.0 2.0 21 62
- 0.186832 3 1 ack 40 ------- 0 3.0 2.0 21 62
r 0.187864 3 1 ack 40 ------- 0 3.0 2.0 21 62
+ 0.187864 1 0 ack 40 ------- 0 3.0 2.0 21 62
- 0.187864 1 0 ack 40 ------- 0 3.0 2.0 21 62
- 0.18932 0 1 tcp 1040 ------- 0 2.0 3.0 23 34
r 0.192184 1 0 ack 40 ------- 0 3.0 2.0 21 62
+ 0.192184 0 2 ack 40 ------- 0 3.0 2.0 21 62
- 0.192184 0 2 ack 40 ------- 0 3.0 2.0 21 62
r 0.193216 0 2 ack 40 ------- 0 3.0 2.0 21 62
+ 0.193216 2 0 tcp 1040 ------- 0 2.0 3.0 41 63
- 0.193216 2 0 tcp 1040 ------- 0 2.0 3.0 41 63
r 0.19332 0 1 tcp 1040 ------- 0 2.0 3.0 22 33
+ 0.19332 1 3 tcp 1040 ------- 0 2.0 3.0 22 33
- 0.19332 1 3 tcp 1040 ------- 0 2.0 3.0 22 33
r 0.195048 2 0 tcp 1040 ------- 0 2.0 3.0 41 63
+ 0.195048 0 1 tcp 1040 ------- 0 2.0 3.0 41 63
r 0.195152 1 3 tcp 1040 ------- 0 2.0 3.0 22 33
+ 0.195152 3 1 ack 40 ------- 0 3.0 2.0 22 64
- 0.195152 3 1 ack 40 ------- 0 3.0 2.0 22 64
r 0.196184 3 1 ack 40 ------- 0 3.0 2.0 22 64
+ 0.196184 1 0 ack 40 ------- 0 3.0 2.0 22 64
- 0.196184 1 0 ack 40 ------- 0 3.0 2.0 22 64
- 0.19764 0 1 tcp 1040 ------- 0 2.0 3.0 24 36
r 0.200504 1 0 ack 40 ------- 0 3.0 2.0 22 64
+ 0.200504 0 2 ack 40 ------- 0 3.0 2.0 22 64
- 0.200504 0 2 ack 40 ------- 0 3.0 2.0 22 64
r 0.201536 0 2 ack 40 ------- 0 3.0 2.0 22 64
+ 0.201536 2 0 tcp 1040 ------- 0 2.0 3.0 42 65
- 0.201536 2 0 tcp 1040 ------- 0 2.0 3.0 42 65
r 0.20164 0 1 tcp 1040 ------- 0 2.0 3.0 23 34
+ 0.20164 1 3 tcp 1040 ------- 0 2.0 3.0 23 34
- 0.20164 1 3 tcp 1040 ------- 0 2.0 3.0 23 34
r 0.203368 2 0 tcp 1040 ------- 0 2.0 3.0 42 65
+ 0.203368 0 1 tcp 1040 ------- 0 2.0 3.0 42 65
r 0.203472 1 3 tcp 1040 ------- 0 2.0 3.0 23 34
+ 0.203472 3 1 ack 40 ------- 0 3.0 2.0 23 66
- 0.203472 3 1 ack 40 ------- 0 3.0 2.0 23 66
r 0.204504 3 1 ack 40 ------- 0 3.0 2.0 23 66
+ 0.204504 1 0 ack 40 ------- 0 3.0 2.0 23 66
- 0.204504 1 0 ack 40 ------- 0 3.0 2.0 23 66
- 0.20596 0 1 tcp 1040 ------- 0 2.0 3.0 25 37
r 0.208824 1 0 ack 40 ------- 0 3.0 2.0 23 66
+ 0.208824 0 2 ack 40 ------- 0 3.0 2.0 23 66
- 0.208824 0 2 ack 40 ------- 0 3.0 2.0 23 66
r 0.209856 0 2 ack 40 ------- 0 3.0 2.0 23 66
+ 0.209856 2 0 tcp 1040 ------- 0 2.0 3.0 43 67
- 0.209856 2 0 tcp 1040 ------- 0 2.0 3.0 43 67
r 0.20996 0 1 tcp 1040 ------- 0 2.0 3.0 24 36
+ 0.20996 1 3 tcp 1040 ------- 0 2.0 3.0 24 36
- 0.20996 1 3 tcp 1040 ------- 0 2.0 3.0 24 36
r 0.211688 2 0 tcp 1040 ------- 0 2.0 3.0 43 67
+ 0.211688 0 1 tcp 1040 ------- 0 2.0 3.0 43 67
r 0.211792 1 3 tcp 1040 ------- 0 2.0 3.0 24 36
+ 0.211792 3 1 ack 40 ------- 0 3.0 2.0 24 68
- 0.211792 3 1 ack 40 ------- 0 3.0 2.0 24 68
r 0.212824 3 1 ack 40 ------- 0 3.0 2.0 24 68
+ 0.212824 1 0 ack 40 ------- 0 3.0 2.0 24 68
- 0.212824 1 0 ack 40 ------- 0 3.0 2.0 24 68
- 0.21428 0 1 tcp 1040 ------- 0 2.0 3.0 26 39
r 0.217144 1 0 ack 40 ------- 0 3.0 2.0 24 68
+ 0.217144 0 2 ack 40 ------- 0 3.0 2.0 24 68
- 0.217144 0 2 ack 40 ------- 0 3.0 2.0 24 68
r 0.218176 0 2 ack 40 ------- 0 3.0 2.0 24 68
+ 0.218176 2 0 tcp 1040 ------- 0 2.0 3.0 44 69
- 0.218176 2 0 tcp 1040 ------- 0 2.0 3.0 44 69
r 0.21828 0 1 tcp 1040 ------- 0 2.0 3.0 25 37
+ 0.21828 1 3 tcp 1040 ------- 0 2.0 3.0 25 37
- 0.21828 1 3 tcp 1040 ------- 0 2.0 3.0 25 37
r 0.220008 2 0 tcp 1040 ------- 0 2.0 3.0 44 69
+ 0.220008 0 1 tcp 1040 ------- 0 2.0 3.0 44 69
r 0.220112 1 3 tcp 1040 ------- 0 2.0 3.0 25 37
+ 0.220112 3 1 ack 40 ------- 0 3.0 2.0 25 70
- 0.220112 3 1 ack 40 ------- 0 3.0 2.0 25 70
r 0.221144 3 1 ack 40 ------- 0 3.0 2.0 25 70
+ 0.221144 1 0 ack 40 ------- 0 3.0 2.0 25 70
- 0.221144 1 0 ack 40 ------- 0 3.0 2.0 25 70
- 0.2226 0 1 tcp 1040 ------- 0 2.0 3.0 27 40
r 0.225464 1 0 ack 40 ------- 0 3.0 2.0 25 70
+ 0.225464 0 2 ack 40 ------- 0 3.0 2.0 25 70
- 0.225464 0 2 ack 40 ------- 0 3.0 2.0 25 70
r 0.226496 0 2 ack 40 ------- 0 3.0 2.0 25 70
+ 0.226496 2 0 tcp 1040 ------- 0 2.0 3.0 45 71
- 0.226496 2 0 tcp 1040 ------- 0 2.0 3.0 45 71
r 0.2266 0 1 tcp 1040 ------- 0 2.0 3.0 26 39
+ 0.2266 1 3 tcp 1040 ------- 0 2.0 3.0 26 39
- 0.2266 1 3 tcp 1040 ------- 0 2.0 3.0 26 39
r 0.228328 2 0 tcp 1040 ------- 0 2.0 3.0 45 71
+ 0.228328 0 1 tcp 1040 ------- 0 2.0 3.0 45 71
r 0.228432 1 3 tcp 1040 ------- 0 2.0 3.0 26 39
+ 0.228432 3 1 ack 40 ------- 0 3.0 2.0 26 72
- 0.228432 3 1 ack 40 ------- 0 3.0 2.0 26 72
r 0.229464 3 1 ack 40 ------- 0 3.0 2.0 26 72
+ 0.229464 1 0 ack 40 ------- 0 3.0 2.0 26 72
- 0.229464 1 0 ack 40 ------- 0 3.0 2.0 26 72
- 0.23092 0 1 tcp 1040 ------- 0 2.0 3.0 28 42
r 0.233784 1 0 ack 40 ------- 0 3.0 2.0 26 72
+ 0.233784 0 2 ack 40 ------- 0 3.0 2.0 26 72
- 0.233784 0 2 ack 40 ------- 0 3.0 2.0 26 72
r 0.234816 0 2 ack 40 ------- 0 3.0 2.0 26 72
+ 0.234816 2 0 tcp 1040 ------- 0 2.0 3.0 46 73
- 0.234816 2 0 tcp 1040 ------- 0 2.0 3.0 46 73
r 0.23492 0 1 tcp 1040 ------- 0 2.0 3.0 27 40
+ 0.23492 1 3 tcp 1040 ------- 0 2.0 3.0 27 40
- 0.23492 1 3 tcp 1040 ------- 0 2.0 3.0 27 40
r 0.236648 2 0 tcp 1040 ------- 0 2.0 3.0 46 73
+ 0.236648 0 1 tcp 1040 ------- 0 2.0 3.0 46 73
r 0.236752 1 3 tcp 1040 ------- 0 2.0 3.0 27 40
+ 0.236752 3 1 ack 40 ------- 0 3.0 2.0 27 74
- 0.236752 3 1 ack 40 ------- 0 3.0 2.0 27 74
r 0.237784 3 1 ack 40 ------- 0 3.0 2.0 27 74
+ 0.237784 1 0 ack 40 ------- 0 3.0 2.0 27 74
- 0.237784 1 0 ack 40 ------- 0 3.0 2.0 27 74
- 0.23924 0 1 tcp 1040 ------- 0 2.0 3.0 29 43
r 0.242104 1 0 ack 40 ------- 0 3.0 2.0 27 74
+ 0.242104 0 2 ack 40 ------- 0 3.0 2.0 27 74
- 0.242104 0 2 ack 40 ------- 0 3.0 2.0 27 74
r 0.243136 0 2 ack 40 ------- 0 3.0 2.0 27 74
+ 0.243136 2 0 tcp 1040 ------- 0 2.0 3.0 47 75
- 0.243136 2 0 tcp 1040 ------- 0 2.0 3.0 47 75
r 0.24324 0 1 tcp 1040 ------- 0 2.0 3.0 28 42
+ 0.24324 1 3 tcp 1040 ------- 0 2.0 3.0 28 42
- 0.24324 1 3 tcp 1040 ------- 0 2.0 3.0 28 42
r 0.244968 2 0 tcp 1040 ------- 0 2.0 3.0 47 75
+ 0.244968 0 1 tcp 1040 ------- 0 2.0 3.0 47 75
r 0.245072 1 3 tcp 1040 ------- 0 2.0 3.0 28 42
+ 0.245072 3 1 ack 40 ------- 0 3.0 2.0 28 76
- 0.245072 3 1 ack 40 ------- 0 3.0 2.0 28 76
r 0.246104 3 1 ack 40 ------- 0 3.0 2.0 28 76
+ 0.246104 1 0 ack 40 ------- 0 3.0 2.0 28 76
- 0.246104 1 0 ack 40 ------- 0 3.0 2.0 28 76
- 0.24756 0 1 tcp 1040 ------- 0 2.0 3.0 30 45
r 0.250424 1 0 ack 40 ------- 0 3.0 2.0 28 76
+ 0.250424 0 2 ack 40 ------- 0 3.0 2.0 28 76
- 0.250424 0 2 ack 40 ------- 0 3.0 2.0 28 76
r 0.251456 0 2 ack 40 ------- 0 3.0 2.0 28 76
+ 0.251456 2 0 tcp 1040 ------- 0 2.0 3.0 48 77
- 0.251456 2 0 tcp 1040 ------- 0 2.0 3.0 48 77
r 0.25156 0 1 tcp 1040 ------- 0 2.0 3.0 29 43
+ 0.25156 1 3 tcp 1040 ------- 0 2.0 3.0 29 43
- 0.25156 1 3 tcp 1040 ------- 0 2.0 3.0 29 43
r 0.253288 2 0 tcp 1040 ------- 0 2.0 3.0 48 77
+ 0.253288 0 1 tcp 1040 ------- 0 2.0 3.0 48 77
r 0.253392 1 3 tcp 1040 ------- 0 2.0 3.0 29 43
+ 0.253392 3 1 ack 40 ------- 0 3.0 2.0 29 78
- 0.253392 3 1 ack 40 ------- 0 3.0 2.0 29 78
r 0.254424 3 1 ack 40 ------- 0 3.0 2.0 29 78
+ 0.254424 1 0 ack 40 ------- 0 3.0 2.0 29 78
- 0.254424 1 0 ack 40 ------- 0 3.0 2.0 29 78
- 0.25588 0 1 tcp 1040 ------- 0 2.0 3.0 31 46
r 0.258744 1 0 ack 40 ------- 0 3.0 2.0 29 78
+ 0.258744 0 2 ack 40 ------- 0 3.0 2.0 29 78
- 0.258744 0 2 ack 40 ------- 0 3.0 2.0 29 78
r 0.259776 0 2 ack 40 ------- 0 3.0 2.0 29 78
+ 0.259776 2 0 tcp 1040 ------- 0 2.0 3.0 49 79
- 0.259776 2 0 tcp 1040 ------- 0 2.0 3.0 49 79
r 0.25988 0 1 tcp 1040 ------- 0 2.0 3.0 30 45
+ 0.25988 1 3 tcp 1040 ------- 0 2.0 3.0 30 45
- 0.25988 1 3 tcp 1040 ------- 0 2.0 3.0 30 45
r 0.261608 2 0 tcp 1040 ------- 0 2.0 3.0 49 79
+ 0.261608 0 1 tcp 1040 ------- 0 2.0 3.0 49 79
r 0.261712 1 3 tcp 1040 ------- 0 2.0 3.0 30 45
+ 0.261712 3 1 ack 40 ------- 0 3.0 2.0 30 80
- 0.261712 3 1 ack 40 ------- 0 3.0 2.0 30 80
r 0.262744 3 1 ack 40 ------- 0 3.0 2.0 30 80
+ 0.262744 1 0 ack 40 ------- 0 3.0 2.0 30 80
- 0.262744 1 0 ack 40 ------- 0 3.0 2.0 30 80
- 0.2642 0 1 tcp 1040 ------- 0 2.0 3.0 32 48
r 0.267064 1 0 ack 40 ------- 0 3.0 2.0 30 80
+ 0.267064 0 2 ack 40 ------- 0 3.0 2.0 30 80
- 0.267064 0 2 ack 40 ------- 0 3.0 2.0 30 80
r 0.268096 0 2 ack 40 ------- 0 3.0 2.0 30 80
+ 0.268096 2 0 tcp 1040 ------- 0 2.0 3.0 50 81
- 0.268096 2 0 tcp 1040 ------- 0 2.0 3.0 50 81
r 0.2682 0 1 tcp 1040 ------- 0 2.0 3.0 31 46
+ 0.2682 1 3 tcp 1040 ------- 0 2.0 3.0 31 46
- 0.2682 1 3 tcp 1040 ------- 0 2.0 3.0 31 46
r 0.269928 2 0 tcp 1040 ------- 0 2.0 3.0 50 81
+ 0.269928 0 1 tcp 1040 ------- 0 2.0 3.0 50 81
r 0.270032 1 3 tcp 1040 ------- 0 2.0 3.0 31 46
+ 0.270032 3 1 ack 40 ------- 0 3.0 2.0 31 82
- 0.270032 3 1 ack 40 ------- 0 3.0 2.0 31 82